% Model:              HY_Ge-backup.mph
% Version:            COMSOL 6.2.0.415
% Date:               Jul 31 2024, 12:24
% Table:              Table 2 - All_Compacted
% height_substrate (nm)                           ratio                                             height_waveguide (nm)                             daddy                                             Effective mode index                              real(ewfd.neff) (1)                               Wavelength in free space (nm)                     Propagation constant (rad/m)
500                                               2                                                 1499.9999999999998                                1                                                 1.4730794268589604                                1.4730794268589604                                314.4                                             2.943902993367922E7
500                                               2                                                 1499.9999999999998                                1                                                 1.4761168171699626                                1.4761168171699626                                314.4                                             2.9499731225582074E7
500                                               2                                                 1499.9999999999998                                1                                                 1.476123319210475                                 1.476123319210475                                 314.4                                             2.949986116682067E7
500                                               2                                                 1499.9999999999998                                1                                                 1.4787183369241628                                1.4787183369241628                                314.4                                             2.95517217812307E7
500                                               2                                                 1499.9999999999998                                1                                                 1.4787869747826687                                1.4787869747826687                                314.4                                             2.955309348728694E7
500                                               2                                                 1499.9999999999998                                2                                                 1.4703967434899243-5.359657386013421E-15i         1.4703967434899243                                318.8                                             2.8979846971206408E7
500                                               2                                                 1499.9999999999998                                2                                                 1.4735180889762043                                1.4735180889762043                                318.8                                             2.904136513964438E7
500                                               2                                                 1499.9999999999998                                2                                                 1.473524874632513                                 1.473524874632513                                 318.8                                             2.9041498877210308E7
500                                               2                                                 1499.9999999999998                                2                                                 1.476194814202215                                 1.476194814202215                                 318.8                                             2.909412034858863E7
500                                               2                                                 1499.9999999999998                                2                                                 1.4762663851875346                                1.4762663851875346                                318.8                                             2.9095530931284305E7
500                                               2                                                 1499.9999999999998                                3                                                 1.4682180746017925-3.848284342476022E-15i         1.4682180746017925                                323.19999999999993                                2.8542964833148155E7
500                                               2                                                 1499.9999999999998                                3                                                 1.4714235851426936                                1.4714235851426936                                323.19999999999993                                2.860528171660298E7
500                                               2                                                 1499.9999999999998                                3                                                 1.4714306598626454                                1.4714306598626454                                323.19999999999993                                2.8605419253040027E7
500                                               2                                                 1499.9999999999998                                3                                                 1.4741758030262884                                1.4741758030262884                                323.19999999999993                                2.8658786342123896E7
500                                               2                                                 1499.9999999999998                                3                                                 1.4742503654775736                                1.4742503654775736                                323.19999999999993                                2.866023587708176E7
500                                               2                                                 1499.9999999999998                                4                                                 1.466442672366475+1.1716708912197807E-15i         1.466442672366475                                 327.6                                             2.8125552664329063E7
500                                               2                                                 1499.9999999999998                                4                                                 1.469732669595999                                 1.469732669595999                                 327.6                                             2.8188652976457287E7
500                                               2                                                 1499.9999999999998                                4                                                 1.4697400391837623                                1.4697400391837623                                327.6                                             2.818879432104079E7
500                                               2                                                 1499.9999999999998                                4                                                 1.4725607716966096                                1.4725607716966096                                327.6                                             2.8242894397598192E7
500                                               2                                                 1499.9999999999998                                4                                                 1.472638387414498                                 1.472638387414498                                 327.6                                             2.8244383023783304E7
500                                               2                                                 1499.9999999999998                                5                                                 1.464989088026576-6.980096464552977E-16i          1.464989088026576                                 331.99999999999994                                2.7725294918876518E7
500                                               2                                                 1499.9999999999998                                5                                                 1.468363986781537                                 1.468363986781537                                 331.99999999999994                                2.778916574499215E7
500                                               2                                                 1499.9999999999998                                5                                                 1.46837165735319                                  1.46837165735319                                  331.99999999999994                                2.778931091253163E7
500                                               2                                                 1499.9999999999998                                5                                                 1.4712684526706787                                1.4712684526706787                                331.99999999999994                                2.784413350824474E7
500                                               2                                                 1499.9999999999998                                5                                                 1.4713491864895722                                1.4713491864895722                                331.99999999999994                                2.78456614165118E7
500                                               2                                                 1499.9999999999998                                6                                                 1.4637914540431503+7.198340906429627E-15i         1.4637914540431503                                336.4                                             2.734028821884353E7
500                                               2                                                 1499.9999999999998                                6                                                 1.4672517466640316                                1.4672517466640316                                336.4                                             2.7404918598611854E7
500                                               2                                                 1499.9999999999998                                6                                                 1.4672597246100076                                1.4672597246100076                                336.4                                             2.7405067608460065E7
500                                               2                                                 1499.9999999999998                                6                                                 1.4702331299786462                                1.4702331299786462                                336.4                                             2.746060404402641E7
500                                               2                                                 1499.9999999999998                                6                                                 1.4703170494122475                                1.4703170494122475                                336.4                                             2.746217146778441E7
500                                               2                                                 1499.9999999999998                                7                                                 1.4627965005153696+1.6210962821835076E-15i        1.4627965005153696                                340.8                                             2.6968959740117032E7
500                                               2                                                 1499.9999999999998                                7                                                 1.4663427435911458                                1.4663427435911458                                340.8                                             2.7034340322245568E7
500                                               2                                                 1499.9999999999998                                7                                                 1.4663510355443952                                1.4663510355443952                                340.8                                             2.7034493197476856E7
500                                               2                                                 1499.9999999999998                                7                                                 1.4694016601811202                                1.4694016601811202                                340.8                                             2.709073627228669E7
500                                               2                                                 1499.9999999999998                                7                                                 1.4694888351274662                                1.4694888351274662                                340.8                                             2.7092343479863085E7
500                                               2                                                 1499.9999999999998                                8                                                 1.4619611560446129+2.2412078160346905E-15i        1.4619611560446129                                345.19999999999993                                2.661000247777171E7
500                                               2                                                 1499.9999999999998                                8                                                 1.4655939592381897                                1.4655939592381897                                345.19999999999993                                2.6676125234578654E7
500                                               2                                                 1499.9999999999998                                8                                                 1.4656025720470904                                1.4656025720470904                                345.19999999999993                                2.6676282001306172E7
500                                               2                                                 1499.9999999999998                                8                                                 1.4687310771150068                                1.4687310771150068                                345.19999999999993                                2.673322573559403E7
500                                               2                                                 1499.9999999999998                                8                                                 1.4688215796099175                                1.4688215796099175                                345.19999999999993                                2.673487302396682E7
500                                               2                                                 1499.9999999999998                                9                                                 1.4612506148878135+7.18938359572249E-15i          1.4612506148878135                                349.6                                             2.6262323780235253E7
500                                               2                                                 1499.9999999999998                                9                                                 1.4649706315250959                                1.4649706315250959                                349.6                                             2.632918177187666E7
500                                               2                                                 1499.9999999999998                                9                                                 1.4649795722303238                                1.4649795722303238                                349.6                                             2.632934245868365E7
500                                               2                                                 1499.9999999999998                                9                                                 1.4681866623505027                                1.4681866623505027                                349.6                                             2.638698187951291E7
500                                               2                                                 1499.9999999999998                                9                                                 1.4682805663606227                                1.4682805663606227                                349.6                                             2.6388669569148697E7
500                                               2                                                 1499.9999999999998                                10                                                1.4606367769794317-1.5146448078272515E-15i        1.4606367769794317                                354                                               2.592500433967037E7
500                                               2                                                 1499.9999999999998                                10                                                1.4644446961284165                                1.4644446961284165                                354                                               2.5992591519466497E7
500                                               2                                                 1499.9999999999998                                10                                                1.4644539719431076                                1.4644539719431076                                354                                               2.599275615693141E7
500                                               2                                                 1499.9999999999998                                10                                                1.4677403880140583                                1.4677403880140583                                354                                               2.6051087120689254E7
500                                               2                                                 1499.9999999999998                                10                                                1.4678377692623041                                1.4678377692623041                                354                                               2.6052815551277313E7
500                                               2                                                 1499.9999999999998                                11                                                1.460096986769062-1.7198265141032918E-16i         1.460096986769062                                 358.3999999999999                                 2.5597265441753786E7
500                                               2                                                 1499.9999999999998                                11                                                1.4639935265750077                                1.4639935265750077                                358.3999999999999                                 2.5665576495485812E7
500                                               2                                                 1499.9999999999998                                11                                                1.4640031448676618                                1.4640031448676618                                358.3999999999999                                 2.5665745115784597E7
500                                               2                                                 1499.9999999999998                                11                                                1.4673696579945483                                1.4673696579945483                                358.3999999999999                                 2.5724764161028128E7
500                                               2                                                 1499.9999999999998                                11                                                1.4674705938121624                                1.4674705938121624                                358.3999999999999                                 2.572653368794275E7
500                                               2                                                 1499.9999999999998                                12                                                1.4596130120283326+1.5263056882270082E-15i        1.4596130120283326                                362.8                                             2.5278442754532963E7
500                                               2                                                 1499.9999999999998                                12                                                1.4635989141069896                                1.4635989141069896                                362.8                                             2.53474729678088E7
500                                               2                                                 1499.9999999999998                                12                                                1.4636088823866746                                1.4636088823866746                                362.8                                             2.534764560438117E7
500                                               2                                                 1499.9999999999998                                12                                                1.467056288750668                                 1.467056288750668                                 362.8                                             2.5407349829888668E7
500                                               2                                                 1499.9999999999998                                12                                                1.4671608579513606                                1.4671608579513606                                362.8                                             2.5409160821248576E7
500                                               2                                                 1499.9999999999998                                13                                                1.4591702157581703-4.3028490394604754E-15i        1.4591702157581703                                367.2                                             2.4967965305898152E7
500                                               2                                                 1499.9999999999998                                13                                                1.463246240479232                                 1.463246240479232                                 367.2                                             2.5037710454697378E7
500                                               2                                                 1499.9999999999998                                13                                                1.4632565663827142                                1.4632565663827142                                367.2                                             2.503788714196601E7
500                                               2                                                 1499.9999999999998                                13                                                1.4667856829055057                                1.4667856829055057                                367.2                                             2.5098274105700567E7
500                                               2                                                 1499.9999999999998                                13                                                1.4668939656779552                                1.4668939656779552                                367.2                                             2.5100126939918637E7
500                                               2                                                 1499.9999999999998                                14                                                1.4587568837792064-6.727998296316448E-15i         1.4587568837792064                                371.6                                             2.4665338586944528E7
500                                               2                                                 1499.9999999999998                                14                                                1.4629238062983216                                1.4629238062983216                                371.6                                             2.4735794847300448E7
500                                               2                                                 1499.9999999999998                                14                                                1.462934497578812                                 1.462934497578812                                 371.6                                             2.4735975620434176E7
500                                               2                                                 1499.9999999999998                                14                                                1.4665461582589239                                1.4665461582589239                                371.6                                             2.479704325584805E7
500                                               2                                                 1499.9999999999998                                14                                                1.4666582360745077                                1.4666582360745077                                371.6                                             2.479893831958362E7
500                                               2                                                 1499.9999999999998                                15                                                1.4583636780658495-6.201098583280613E-15i         1.4583636780658495                                376                                               2.4370130942946076E7
500                                               2                                                 1499.9999999999998                                15                                                1.462622284986451                                 1.462622284986451                                 376                                               2.4441294816436972E7
500                                               2                                                 1499.9999999999998                                15                                                1.4626333495037176                                1.4626333495037176                                376                                               2.444147971115059E7
500                                               2                                                 1499.9999999999998                                15                                                1.4663284023204284                                1.4663284023204284                                376                                               2.4503226257871892E7
500                                               2                                                 1499.9999999999998                                15                                                1.4664443578537987                                1.4664443578537987                                376                                               2.4505163944317527E7
500                                               2                                                 1499.9999999999998                                16                                                1.457983191820123-7.840112737059374E-15i          1.457983191820123                                 380.3999999999999                                 2.40819625892718E7
500                                               2                                                 1499.9999999999998                                16                                                1.462334278385225                                 1.462334278385225                                 380.3999999999999                                 2.415383084157494E7
500                                               2                                                 1499.9999999999998                                16                                                1.462345724096856                                 1.462345724096856                                 380.3999999999999                                 2.415401989395967E7
500                                               2                                                 1499.9999999999998                                16                                                1.4661250283935767                                1.4661250283935767                                380.3999999999999                                 2.4216443840406876E7