% Model:              HY_Ge-backup.mph
% Version:            COMSOL 6.2.0.415
% Date:               Jul 31 2024, 12:24
% Table:              Table 1 - All_Compacted
% height_substrate (nm)                           ratio                                             height_waveguide (nm)                             daddy                                             Effective mode index                              real(ewfd.neff) (1)                               Wavelength in free space (nm)                     Propagation constant (rad/m)
500                                               1                                                 1499.9999999999998                                1                                                 1.466748386918669                                 1.466748386918669                                 314.4                                             2.9312506087839503E7
500                                               1                                                 1499.9999999999998                                1                                                 1.4704784253810692                                1.4704784253810692                                314.4                                             2.9387049735619936E7
500                                               1                                                 1499.9999999999998                                1                                                 1.470729816400392                                 1.470729816400392                                 314.4                                             2.9392073706227332E7
500                                               1                                                 1499.9999999999998                                1                                                 1.4762630305681668                                1.4762630305681668                                314.4                                             2.950265325444756E7
500                                               1                                                 1499.9999999999998                                1                                                 1.4763539497378755                                1.4763539497378755                                314.4                                             2.9504470245513894E7
500                                               1                                                 1499.9999999999998                                2                                                 1.4638921457062464                                1.4638921457062464                                318.8                                             2.8851648749049827E7
500                                               1                                                 1499.9999999999998                                2                                                 1.4677188623961162                                1.4677188623961162                                318.8                                             2.8927068981422875E7
500                                               1                                                 1499.9999999999998                                2                                                 1.467981376503797                                 1.467981376503797                                 318.8                                             2.8932242835827857E7
500                                               1                                                 1499.9999999999998                                2                                                 1.473670872680645                                 1.473670872680645                                 318.8                                             2.9044376332639728E7
500                                               1                                                 1499.9999999999998                                2                                                 1.473765461427212                                 1.473765461427212                                 318.8                                             2.904624056922271E7
500                                               1                                                 1499.9999999999998                                3                                                 1.4615393314868386                                1.4615393314868386                                323.19999999999993                                2.8413126403042015E7
500                                               1                                                 1499.9999999999998                                3                                                 1.465462807315054                                 1.465462807315054                                 323.19999999999993                                2.8489400925557226E7
500                                               1                                                 1499.9999999999998                                3                                                 1.4657366748356895                                1.4657366748356895                                323.19999999999993                                2.8494725060401816E7
500                                               1                                                 1499.9999999999998                                3                                                 1.471582968452936                                 1.471582968452936                                 323.19999999999993                                2.860838021559161E7
500                                               1                                                 1499.9999999999998                                3                                                 1.471681294957279                                 1.471681294957279                                 323.19999999999993                                2.8610291736777853E7
500                                               1                                                 1499.9999999999998                                4                                                 1.4595889839969038                                1.4595889839969038                                327.6                                             2.7994102743499767E7
500                                               1                                                 1499.9999999999998                                4                                                 1.4636094175690735                                1.4636094175690735                                327.6                                             2.8071212417337216E7
500                                               1                                                 1499.9999999999998                                4                                                 1.4638948833496963                                1.4638948833496963                                327.6                                             2.807668749181375E7
500                                               1                                                 1499.9999999999998                                4                                                 1.4698987001422976                                1.4698987001422976                                327.6                                             2.8191837349744976E7
500                                               1                                                 1499.9999999999998                                4                                                 1.4700008361020478                                1.4700008361020478                                327.6                                             2.8193796260494784E7
500                                               1                                                 1499.9999999999998                                5                                                 1.457959479159124                                 1.457959479159124                                 331.99999999999994                                2.7592257764806658E7
500                                               1                                                 1499.9999999999998                                5                                                 1.4620771650924327                                1.4620771650924327                                331.99999999999994                                2.7670186029131193E7
500                                               1                                                 1499.9999999999998                                5                                                 1.462374486908403                                 1.462374486908403                                 331.99999999999994                                2.7675812920895074E7
500                                               1                                                 1499.9999999999998                                5                                                 1.4685367288125464                                1.4685367288125464                                331.99999999999994                                2.7792434932314955E7
500                                               1                                                 1499.9999999999998                                5                                                 1.468642748881337                                 1.468642748881337                                 331.99999999999994                                2.7794441389358602E7
500                                               1                                                 1499.9999999999998                                6                                                 1.4565848051003676                                1.4565848051003676                                336.4                                             2.720568444134266E7
500                                               1                                                 1499.9999999999998                                6                                                 1.4608001159367126                                1.4608001159367126                                336.4                                             2.728441684060579E7
500                                               1                                                 1499.9999999999998                                6                                                 1.4611095631503859                                1.4611095631503859                                336.4                                             2.729019660929277E7
500                                               1                                                 1499.9999999999998                                6                                                 1.4674312793883428                                1.4674312793883428                                336.4                                             2.7408271860727046E7
500                                               1                                                 1499.9999999999998                                6                                                 1.4675412607237404                                1.4675412607237404                                336.4                                             2.741032606141264E7
500                                               1                                                 1499.9999999999998                                7                                                 1.45541157343883                                  1.45541157343883                                  340.8                                             2.683280696634383E7
500                                               1                                                 1499.9999999999998                                7                                                 1.4597249445711367                                1.4597249445711367                                340.8                                             2.6912330763652876E7
500                                               1                                                 1499.9999999999998                                7                                                 1.4600467970007418                                1.4600467970007418                                340.8                                             2.6918264620626982E7
500                                               1                                                 1499.9999999999998                                7                                                 1.4665291596223278                                1.4665291596223278                                340.8                                             2.7037777195684962E7
500                                               1                                                 1499.9999999999998                                7                                                 1.4666431815189342                                1.4666431815189342                                340.8                                             2.703987936911646E7
500                                               1                                                 1499.9999999999998                                8                                                 1.4543966158637702                                1.4543966158637702                                345.19999999999993                                2.6472315896891527E7
500                                               1                                                 1499.9999999999998                                8                                                 1.4588085329784002                                1.4588085329784002                                345.19999999999993                                2.6552619757816024E7
500                                               1                                                 1499.9999999999998                                8                                                 1.459143079941679                                 1.459143079941679                                 345.19999999999993                                2.6558709041026436E7
500                                               1                                                 1499.9999999999998                                8                                                 1.4657873631690048                                1.4657873631690048                                345.19999999999993                                2.6679645491636734E7
500                                               1                                                 1499.9999999999998                                8                                                 1.465905506758535                                 1.465905506758535                                 345.19999999999993                                2.668179589159581E7
500                                               1                                                 1499.9999999999998                                9                                                 1.4535050477177984                                1.4535050477177984                                349.6                                             2.6123116589621946E7
500                                               1                                                 1499.9999999999998                                9                                                 1.4580160363340533                                1.4580160363340533                                349.6                                             2.6204190323587928E7
500                                               1                                                 1499.9999999999998                                9                                                 1.4583635758375497                                1.4583635758375497                                349.6                                             2.621043647662578E7
500                                               1                                                 1499.9999999999998                                9                                                 1.4651711386405128                                1.4651711386405128                                349.6                                             2.6332785385611136E7
500                                               1                                                 1499.9999999999998                                9                                                 1.4652934866448588                                1.4652934866448588                                349.6                                             2.6334984284876782E7
500                                               1                                                 1499.9999999999998                                10                                                1.4527087050460856                                1.4527087050460856                                354                                               2.5784288110614263E7
500                                               1                                                 1499.9999999999998                                10                                                1.4573193218012084                                1.4573193218012084                                354                                               2.586612245935105E7
500                                               1                                                 1499.9999999999998                                10                                                1.457680159850889                                 1.457680159850889                                 354                                               2.587252701396129E7
500                                               1                                                 1499.9999999999998                                10                                                1.4646524312573856                                1.4646524312573856                                354                                               2.5996278633336905E7
500                                               1                                                 1499.9999999999998                                10                                                1.4647790677836954                                1.4647790677836954                                354                                               2.5998526319103744E7
500                                               1                                                 1499.9999999999998                                11                                                1.4519848809603035                                1.4519848809603035                                358.3999999999999                                 2.5455050419354577E7
500                                               1                                                 1499.9999999999998                                11                                                1.4566957063464865                                1.4566957063464865                                358.3999999999999                                 2.5537636883783016E7
500                                               1                                                 1499.9999999999998                                11                                                1.4570701563595336                                1.4570701563595336                                358.3999999999999                                 2.554420144522345E7
500                                               1                                                 1499.9999999999998                                11                                                1.4642086230750089                                1.4642086230750089                                358.3999999999999                                 2.566934739718345E7
500                                               1                                                 1499.9999999999998                                11                                                1.464339633444224                                 1.464339633444224                                 358.3999999999999                                 2.5671644167347904E7
500                                               1                                                 1499.9999999999998                                12                                                1.4513153023840384                                1.4513153023840384                                362.8                                             2.5134738103705313E7
500                                               1                                                 1499.9999999999998                                12                                                1.456126934694373                                 1.456126934694373                                 362.8                                             2.5218068802260563E7
500                                               1                                                 1499.9999999999998                                12                                                1.4565153169961056                                1.4565153169961056                                362.8                                             2.5224795037023008E7
500                                               1                                                 1499.9999999999998                                12                                                1.463821512971351                                 1.463821512971351                                 362.8                                             2.5351328066799846E7
500                                               1                                                 1499.9999999999998                                12                                                1.4639569835737707                                1.4639569835737707                                362.8                                             2.535367422693953E7
500                                               1                                                 1499.9999999999998                                13                                                1.4506853002420899                                1.4506853002420899                                367.2                                             2.4822779313242115E7
500                                               1                                                 1499.9999999999998                                13                                                1.4555983505230632                                1.4555983505230632                                367.2                                             2.4906846865907818E7
500                                               1                                                 1499.9999999999998                                13                                                1.4560009919154246                                1.4560009919154246                                367.2                                             2.4913736491399508E7
500                                               1                                                 1499.9999999999998                                13                                                1.4634764895560461                                1.4634764895560461                                367.2                                             2.504165026302099E7
500                                               1                                                 1499.9999999999998                                13                                                1.4636165077287777                                1.4636165077287777                                367.2                                             2.504404612392961E7
500                                               1                                                 1499.9999999999998                                14                                                1.4500831356193375                                1.4500831356193375                                371.6                                             2.4518678826459426E7
500                                               1                                                 1499.9999999999998                                14                                                1.455098223461421                                 1.455098223461421                                 371.6                                             2.460347625983831E7
500                                               1                                                 1499.9999999999998                                14                                                1.4555154568515485                                1.4555154568515485                                371.6                                             2.461053103569007E7
500                                               1                                                 1499.9999999999998                                14                                                1.4631618596096594                                1.4631618596096594                                371.6                                             2.4739819963199597E7
500                                               1                                                 1499.9999999999998                                14                                                1.4633065135317767                                1.4633065135317767                                371.6                                             2.4742265838867176E7
500                                               1                                                 1499.9999999999998                                15                                                1.4494994518983968                                1.4494994518983968                                376                                               2.4222004412055504E7
500                                               1                                                 1499.9999999999998                                15                                                1.454617201925897                                 1.454617201925897                                 376                                               2.4307525081679456E7
500                                               1                                                 1499.9999999999998                                15                                                1.4550493660057444                                1.4550493660057444                                376                                               2.43147468024156E7
500                                               1                                                 1499.9999999999998                                15                                                1.4628683021362219                                1.4628683021362219                                376                                               2.444540591042834E7
500                                               1                                                 1499.9999999999998                                15                                                1.4630176807385527                                1.4630176807385527                                376                                               2.4447902116384115E7
500                                               1                                                 1499.9999999999998                                16                                                1.448926828833188                                 1.448926828833188                                 380.3999999999999                                 2.3932375820460036E7
500                                               1                                                 1499.9999999999998                                16                                                1.4541478677778066                                1.4541478677778066                                380.3999999999999                                 2.401861334723459E7
500                                               1                                                 1499.9999999999998                                16                                                1.4545953067471344                                1.4545953067471344                                380.3999999999999                                 2.4026003836083014E7
500                                               1                                                 1499.9999999999998                                16                                                1.4625884240449578                                1.4625884240449578                                380.3999999999999                                 2.415802864461153E7