% Model:              HY_Ge-backup.mph
% Version:            COMSOL 6.2.0.415
% Date:               Jul 31 2024, 12:24
% Table:              Table 4 - All_Compacted
% height_substrate (nm)                           ratio                                             height_waveguide (nm)                             daddy                                             Effective mode index                              real(ewfd.neff) (1)                               Wavelength in free space (nm)                     Propagation constant (rad/m)
500                                               6                                                 1499.9999999999998                                1                                                 1.4787621001203877-1.666318147163261E-15i         1.4787621001203877                                314.4                                             2.9552596374969617E7
500                                               6                                                 1499.9999999999998                                1                                                 1.4791804197703693                                1.4791804197703693                                314.4                                             2.9560956361860424E7
500                                               6                                                 1499.9999999999998                                1                                                 1.4792706322566531                                1.4792706322566531                                314.4                                             2.956275923008034E7
500                                               6                                                 1499.9999999999998                                1                                                 1.4794824914381777                                1.4794824914381777                                314.4                                             2.956699316931872E7
500                                               6                                                 1499.9999999999998                                1                                                 1.4795756999935976                                1.4795756999935976                                314.4                                             2.9568855913039833E7
500                                               6                                                 1499.9999999999998                                2                                                 1.4762403705678422                                1.4762403705678422                                318.8                                             2.9095018212726515E7
500                                               6                                                 1499.9999999999998                                2                                                 1.476669938949586                                 1.476669938949586                                 318.8                                             2.9103484516818743E7
500                                               6                                                 1499.9999999999998                                2                                                 1.4767640089517755                                1.4767640089517755                                318.8                                             2.9105338529540207E7
500                                               6                                                 1499.9999999999998                                2                                                 1.476980939528767                                 1.476980939528767                                 318.8                                             2.9109613984414835E7
500                                               6                                                 1499.9999999999998                                2                                                 1.477078136738755                                 1.477078136738755                                 318.8                                             2.9111529630844243E7
500                                               6                                                 1499.9999999999998                                3                                                 1.4742232056570568                                1.4742232056570568                                323.19999999999993                                2.8659707875271067E7
500                                               6                                                 1499.9999999999998                                3                                                 1.4746640126415245                                1.4746640126415245                                323.19999999999993                                2.8668277404875364E7
500                                               6                                                 1499.9999999999998                                3                                                 1.4747620168582556                                1.4747620168582556                                323.19999999999993                                2.8670182660613626E7
500                                               6                                                 1499.9999999999998                                3                                                 1.4749839792965473                                1.4749839792965473                                323.19999999999993                                2.867449773218238E7
500                                               6                                                 1499.9999999999998                                3                                                 1.4750852445071045                                1.4750852445071045                                323.19999999999993                                2.8676466383429598E7
500                                               6                                                 1499.9999999999998                                4                                                 1.4726100739213668-1.4831261994057807E-15i        1.4726100739213668                                327.6                                             2.8243839986774646E7
500                                               6                                                 1499.9999999999998                                4                                                 1.4730621265862276                                1.4730621265862276                                327.6                                             2.825251010479029E7
500                                               6                                                 1499.9999999999998                                4                                                 1.473164146279056                                 1.473164146279056                                 327.6                                             2.8254466785605375E7
500                                               6                                                 1499.9999999999998                                4                                                 1.4733911093682164                                1.4733911093682164                                327.6                                             2.8258819811084878E7
500                                               6                                                 1499.9999999999998                                4                                                 1.4734965266550593                                1.4734965266550593                                327.6                                             2.8260841655858424E7
500                                               6                                                 1499.9999999999998                                5                                                 1.4713197079110567+1.3002164732221589E-15i        1.4713197079110567                                331.99999999999994                                2.784510352683889E7
500                                               6                                                 1499.9999999999998                                5                                                 1.4717830278331296                                1.4717830278331296                                331.99999999999994                                2.785387197541387E7
500                                               6                                                 1499.9999999999998                                5                                                 1.4718891482641083                                1.4718891482641083                                331.99999999999994                                2.7855880331837714E7
500                                               6                                                 1499.9999999999998                                5                                                 1.472121087736983                                 1.472121087736983                                 331.99999999999994                                2.7860269845958564E7
500                                               6                                                 1499.9999999999998                                5                                                 1.47223074532429                                  1.47223074532429                                  331.99999999999994                                2.7862345143974792E7
500                                               6                                                 1499.9999999999998                                6                                                 1.4702863916765392+1.801025859217992E-15i         1.4702863916765392                                336.4                                             2.7461598851153746E7
500                                               6                                                 1499.9999999999998                                6                                                 1.4707610125919417                                1.4707610125919417                                336.4                                             2.747046368813989E7
500                                               6                                                 1499.9999999999998                                6                                                 1.4708713225572558                                1.4708713225572558                                336.4                                             2.747252402688334E7
500                                               6                                                 1499.9999999999998                                6                                                 1.4711082198887029                                1.4711082198887029                                336.4                                             2.747694872911954E7
500                                               6                                                 1499.9999999999998                                6                                                 1.471222209666916                                 1.471222209666916                                 336.4                                             2.7479077798381247E7
500                                               6                                                 1499.9999999999998                                7                                                 1.4694569817704197+1.9818002987802435E-15i        1.4694569817704197                                340.8                                             2.7091756213005755E7
500                                               6                                                 1499.9999999999998                                7                                                 1.469942947563972                                 1.469942947563972                                 340.8                                             2.710071575858627E7
500                                               6                                                 1499.9999999999998                                7                                                 1.4700575390056418                                1.4700575390056418                                340.8                                             2.7102828432478957E7
500                                               6                                                 1499.9999999999998                                7                                                 1.4702993803750857                                1.4702993803750857                                340.8                                             2.7107287159413107E7
500                                               6                                                 1499.9999999999998                                7                                                 1.4704177974992687                                1.4704177974992687                                340.8                                             2.7109470365794517E7
500                                               6                                                 1499.9999999999998                                8                                                 1.4687885120211845+2.021311031539369E-15i         1.4687885120211845                                345.19999999999993                                2.6734271141615514E7
500                                               6                                                 1499.9999999999998                                8                                                 1.4692858750062454                                1.4692858750062454                                345.19999999999993                                2.674332393362035E7
500                                               6                                                 1499.9999999999998                                8                                                 1.4694048426874124                                1.4694048426874124                                345.19999999999993                                2.6745489333349023E7
500                                               6                                                 1499.9999999999998                                8                                                 1.4696516180881358                                1.4696516180881358                                345.19999999999993                                2.674998103546953E7
500                                               6                                                 1499.9999999999998                                8                                                 1.469774560641981                                 1.469774560641981                                 345.19999999999993                                2.675221878415999E7
500                                               6                                                 1499.9999999999998                                9                                                 1.4682462640069183+1.1804634167666426E-15i        1.4682462640069183                                349.6                                             2.638805307016472E7
500                                               6                                                 1499.9999999999998                                9                                                 1.468755083458528                                 1.468755083458528                                 349.6                                             2.6397197826750424E7
500                                               6                                                 1499.9999999999998                                9                                                 1.4688785246907607                                1.4688785246907607                                349.6                                             2.6399416374052096E7
500                                               6                                                 1499.9999999999998                                9                                                 1.469130227168633                                 1.469130227168633                                 349.6                                             2.6403940096336845E7
500                                               6                                                 1499.9999999999998                                9                                                 1.4692577958822035                                1.4692577958822035                                349.6                                             2.6406232824788682E7
500                                               6                                                 1499.9999999999998                                10                                                1.467802209887358-4.2073580754764934E-16i         1.467802209887358                                 354                                               2.605218440398298E7
500                                               6                                                 1499.9999999999998                                10                                                1.468322550794612                                 1.468322550794612                                 354                                               2.6061419992523044E7
500                                               6                                                 1499.9999999999998                                10                                                1.468450565207824                                 1.468450565207824                                 354                                               2.6063692134557508E7
500                                               6                                                 1499.9999999999998                                10                                                1.4687071902130662                                1.4687071902130662                                354                                               2.6068247000270482E7
500                                               6                                                 1499.9999999999998                                10                                                1.4688394882245825                                1.4688394882245825                                354                                               2.607059517236689E7
500                                               6                                                 1499.9999999999998                                11                                                1.4674337536140705                                1.4674337536140705                                358.3999999999999                                 2.5725887834730238E7
500                                               6                                                 1499.9999999999998                                11                                                1.467965685621109                                 1.467965685621109                                 358.3999999999999                                 2.573521324592176E7
500                                               6                                                 1499.9999999999998                                11                                                1.4680983749684822                                1.4680983749684822                                358.3999999999999                                 2.573753945060322E7
500                                               6                                                 1499.9999999999998                                11                                                1.4683599198053825                                1.4683599198053825                                358.3999999999999                                 2.574212464780294E7
500                                               6                                                 1499.9999999999998                                11                                                1.4684970524592096                                1.4684970524592096                                358.3999999999999                                 2.5744528749018516E7
500                                               6                                                 1499.9999999999998                                12                                                1.4671227117388679                                1.4671227117388679                                362.8                                             2.5408500182544447E7
500                                               6                                                 1499.9999999999998                                12                                                1.4676663082472228                                1.4676663082472228                                362.8                                             2.5417914508879423E7
500                                               6                                                 1499.9999999999998                                12                                                1.4678037762392095                                1.4678037762392095                                362.8                                             2.54202952609948E7
500                                               6                                                 1499.9999999999998                                12                                                1.4680702396000036                                1.4680702396000036                                362.8                                             2.542491003131851E7
500                                               6                                                 1499.9999999999998                                12                                                1.4682123142747139                                1.4682123142747139                                362.8                                             2.5427370564694095E7
500                                               6                                                 1499.9999999999998                                13                                                1.4668544870074423+1.8622241595443806E-16i        1.4668544870074423                                367.2                                             2.5099451417580634E7
500                                               6                                                 1499.9999999999998                                13                                                1.467409824416057                                 1.467409824416057                                 367.2                                             2.5108953835462812E7
500                                               6                                                 1499.9999999999998                                13                                                1.4675521765785504                                1.4675521765785504                                367.2                                             2.5111389633436188E7
500                                               6                                                 1499.9999999999998                                13                                                1.4678235581493706                                1.4678235581493706                                367.2                                             2.5116033262789175E7
500                                               6                                                 1499.9999999999998                                13                                                1.4679706841108207                                1.4679706841108207                                367.2                                             2.511855074557591E7
500                                               6                                                 1499.9999999999998                                14                                                1.466617397369563                                 1.466617397369563                                 371.6                                             2.479824779980194E7
500                                               6                                                 1499.9999999999998                                14                                                1.4671845544320414                                1.4671845544320414                                371.6                                             2.4807837554704595E7
500                                               6                                                 1499.9999999999998                                14                                                1.4673318979846224                                1.4673318979846224                                371.6                                             2.481032890789266E7
500                                               6                                                 1499.9999999999998                                14                                                1.4676081981130285                                1.4676081981130285                                371.6                                             2.4815000718730047E7
500                                               6                                                 1499.9999999999998                                14                                                1.4677604863882237                                1.4677604863882237                                371.6                                             2.481757567958355E7
500                                               6                                                 1499.9999999999998                                15                                                1.4664021305093287-2.753122010482291E-16i         1.4664021305093287                                376                                               2.450445830008791E7
500                                               6                                                 1499.9999999999998                                15                                                1.4669811877906875                                1.4669811877906875                                376                                               2.451413469424283E7
500                                               6                                                 1499.9999999999998                                15                                                1.467133631541797                                 1.467133631541797                                 376                                               2.4516682120671403E7
500                                               6                                                 1499.9999999999998                                15                                                1.467414850956623                                 1.467414850956623                                 376                                               2.4521381465605784E7
500                                               6                                                 1499.9999999999998                                15                                                1.4675724142251023                                1.4675724142251023                                376                                               2.452401444223733E7
500                                               6                                                 1499.9999999999998                                16                                                1.4662012999267793                                1.4662012999267793                                380.3999999999999                                 2.4217703641081885E7
500                                               6                                                 1499.9999999999998                                16                                                1.4667923393445819                                1.4667923393445819                                380.3999999999999                                 2.4227466023274057E7
500                                               6                                                 1499.9999999999998                                16                                                1.4669499936009727                                1.4669499936009727                                380.3999999999999                                 2.4230070047741376E7
500                                               6                                                 1499.9999999999998                                16                                                1.4672361331765629                                1.4672361331765629                                380.3999999999999                                 2.423479630425334E7