% Model:              HY_Ge-backup.mph
% Version:            COMSOL 6.2.0.415
% Date:               Jul 31 2024, 12:24
% Table:              Table 3 - All_Compacted
% height_substrate (nm)                           ratio                                             height_waveguide (nm)                             daddy                                             Effective mode index                              real(ewfd.neff) (1)                               Wavelength in free space (nm)                     Propagation constant (rad/m)
500                                               4                                                 1499.9999999999998                                1                                                 1.477631914862855                                 1.477631914862855                                 314.4                                             2.9530009977372542E7
500                                               4                                                 1499.9999999999998                                1                                                 1.47868750767461                                  1.47868750767461                                  314.4                                             2.9551105668355953E7
500                                               4                                                 1499.9999999999998                                1                                                 1.47876841703011                                  1.47876841703011                                  314.4                                             2.955272261642749E7
500                                               4                                                 1499.9999999999998                                1                                                 1.47935928764379                                  1.47935928764379                                  314.4                                             2.95645309801626E7
500                                               4                                                 1499.9999999999998                                1                                                 1.4794501621408334                                1.4794501621408334                                314.4                                             2.9566347078459736E7
500                                               4                                                 1499.9999999999998                                2                                                 1.4750768322131387-2.767482330440404E-16i         1.4750768322131387                                318.8                                             2.9072086195491217E7
500                                               4                                                 1499.9999999999998                                2                                                 1.476162616623574                                 1.476162616623574                                 318.8                                             2.90934857709442E7
500                                               4                                                 1499.9999999999998                                2                                                 1.4762469785669219                                1.4762469785669219                                318.8                                             2.9095148448870577E7
500                                               4                                                 1499.9999999999998                                2                                                 1.476854134985746                                 1.476854134985746                                 318.8                                             2.9107114811135057E7
500                                               4                                                 1499.9999999999998                                2                                                 1.4769488964832234                                1.4769488964832234                                318.8                                             2.9108982452441942E7
500                                               4                                                 1499.9999999999998                                3                                                 1.4730261667407256                                1.4730261667407256                                323.19999999999993                                2.8636436782043297E7
500                                               4                                                 1499.9999999999998                                3                                                 1.4741422230614094                                1.4741422230614094                                323.19999999999993                                2.8658133529184714E7
500                                               4                                                 1499.9999999999998                                3                                                 1.4742301061350547                                1.4742301061350547                                323.19999999999993                                2.865984202434894E7
500                                               4                                                 1499.9999999999998                                3                                                 1.4748535598141268                                1.4748535598141268                                323.19999999999993                                2.8671962305896133E7
500                                               4                                                 1499.9999999999998                                3                                                 1.474952285609905                                 1.474952285609905                                 323.19999999999993                                2.8673881589526933E7
500                                               4                                                 1499.9999999999998                                4                                                 1.471379339813232+2.121492411955447E-16i          1.471379339813232                                 327.6                                             2.8220235192924593E7
500                                               4                                                 1499.9999999999998                                4                                                 1.4725257922908845                                1.4725257922908845                                327.6                                             2.8242223512103368E7
500                                               4                                                 1499.9999999999998                                4                                                 1.4726172690936936                                1.4726172690936936                                327.6                                             2.824397798616734E7
500                                               4                                                 1499.9999999999998                                4                                                 1.4732570556501778                                1.4732570556501778                                327.6                                             2.825624873553069E7
500                                               4                                                 1499.9999999999998                                4                                                 1.4733598276444342                                1.4733598276444342                                327.6                                             2.8258219845067624E7
500                                               4                                                 1499.9999999999998                                5                                                 1.470055044011213+3.025396589696122E-16i          1.470055044011213                                 331.99999999999994                                2.78211694375798E7
500                                               4                                                 1499.9999999999998                                5                                                 1.4712320540634725                                1.4712320540634725                                331.99999999999994                                2.784344465525076E7
500                                               4                                                 1499.9999999999998                                5                                                 1.4713272007467018                                1.4713272007467018                                331.99999999999994                                2.7845245330678754E7
500                                               4                                                 1499.9999999999998                                5                                                 1.4719833761663552                                1.4719833761663552                                331.99999999999994                                2.7857663619099535E7
500                                               4                                                 1499.9999999999998                                5                                                 1.4720902802949598                                1.4720902802949598                                331.99999999999994                                2.785968680720232E7
500                                               4                                                 1499.9999999999998                                6                                                 1.4689875295702537+6.402005635388299E-16i         1.4689875295702537                                336.4                                             2.7437339067258786E7
500                                               4                                                 1499.9999999999998                                6                                                 1.4701952899770607                                1.4701952899770607                                336.4                                             2.7459897279038344E7
500                                               4                                                 1499.9999999999998                                6                                                 1.4702941858268936                                1.4702941858268936                                336.4                                             2.746174442811864E7
500                                               4                                                 1499.9999999999998                                6                                                 1.4709668231991702                                1.4709668231991702                                336.4                                             2.747430776121777E7
500                                               4                                                 1499.9999999999998                                6                                                 1.471077948963753                                 1.471077948963753                                 336.4                                             2.7476383337232266E7
500                                               4                                                 1499.9999999999998                                7                                                 1.468123624474695+3.6182677889890025E-16i         1.468123624474695                                 340.8                                             2.7067173669080522E7
500                                               4                                                 1499.9999999999998                                7                                                 1.4693623544114394                                1.4693623544114394                                340.8                                             2.7090011608452927E7
500                                               4                                                 1499.9999999999998                                7                                                 1.4694650815017662                                1.4694650815017662                                340.8                                             2.709190554432321E7
500                                               4                                                 1499.9999999999998                                7                                                 1.4701542682234507                                1.4701542682234507                                340.8                                             2.7104611788113087E7
500                                               4                                                 1499.9999999999998                                7                                                 1.4702697083000655                                1.4702697083000655                                340.8                                             2.710674010792895E7
500                                               4                                                 1499.9999999999998                                8                                                 1.467420338446139+5.384655833139312E-16i          1.467420338446139                                 345.19999999999993                                2.6709368221266735E7
500                                               4                                                 1499.9999999999998                                8                                                 1.4686902792499572                                1.4686902792499572                                345.19999999999993                                2.6732483150002364E7
500                                               4                                                 1499.9999999999998                                8                                                 1.4687969221522776                                1.4687969221522776                                345.19999999999993                                2.6734424219286762E7
500                                               4                                                 1499.9999999999998                                8                                                 1.4695027575411788                                1.4695027575411788                                345.19999999999993                                2.674727153836217E7
500                                               4                                                 1499.9999999999998                                8                                                 1.469622607452994                                 1.469622607452994                                 345.19999999999993                                2.6749452996082284E7
500                                               4                                                 1499.9999999999998                                9                                                 1.4668429327429435+4.816767572186657E-16i         1.4668429327429435                                349.6                                             2.636283170180399E7
500                                               4                                                 1499.9999999999998                                9                                                 1.468144344312292                                 1.468144344312292                                 349.6                                             2.638622131865503E7
500                                               4                                                 1499.9999999999998                                9                                                 1.4682549898522785                                1.4682549898522785                                349.6                                             2.638820989540317E7
500                                               4                                                 1499.9999999999998                                9                                                 1.4689775831164134                                1.4689775831164134                                349.6                                             2.640119670141083E7
500                                               4                                                 1499.9999999999998                                9                                                 1.469101940958803                                 1.469101940958803                                 349.6                                             2.6403431722486734E7
500                                               4                                                 1499.9999999999998                                10                                                1.466363362416239                                 1.466363362416239                                 354                                               2.6026646140452452E7
500                                               4                                                 1499.9999999999998                                10                                                1.467696520154189                                 1.467696520154189                                 354                                               2.6050308505173467E7
500                                               4                                                 1499.9999999999998                                10                                                1.4678112572064392                                1.4678112572064392                                354                                               2.605234498585394E7
500                                               4                                                 1499.9999999999998                                10                                                1.468550725719351                                 1.468550725719351                                 354                                               2.606546989459815E7
500                                               4                                                 1499.9999999999998                                10                                                1.4686796919279186                                1.4686796919279186                                354                                               2.6067758930154067E7
500                                               4                                                 1499.9999999999998                                11                                                1.465959017029726                                 1.465959017029726                                 358.3999999999999                                 2.570003391944365E7
500                                               4                                                 1499.9999999999998                                11                                                1.4673242092520313                                1.4673242092520313                                358.3999999999999                                 2.5723967389624074E7
500                                               4                                                 1499.9999999999998                                11                                                1.4674431285661305                                1.4674431285661305                                358.3999999999999                                 2.5726052188974205E7
500                                               4                                                 1499.9999999999998                                11                                                1.4681995964045322                                1.4681995964045322                                358.3999999999999                                 2.573931398475434E7
500                                               4                                                 1499.9999999999998                                11                                                1.4683332735584025                                1.4683332735584025                                358.3999999999999                                 2.5741657506877955E7
500                                               4                                                 1499.9999999999998                                12                                                1.4656117010515208                                1.4656117010515208                                362.8                                             2.5382331604402963E7
500                                               4                                                 1499.9999999999998                                12                                                1.4670092267905923                                1.4670092267905923                                362.8                                             2.540653478298659E7
500                                               4                                                 1499.9999999999998                                12                                                1.4671324208431782                                1.4671324208431782                                362.8                                             2.540866833056415E7
500                                               4                                                 1499.9999999999998                                12                                                1.4679060175483574                                1.4679060175483574                                362.8                                             2.5422065936549995E7
500                                               4                                                 1499.9999999999998                                12                                                1.4680445102027788                                1.4680445102027788                                362.8                                             2.542446443437638E7
500                                               4                                                 1499.9999999999998                                13                                                1.4653068070946178-7.411966187473369E-16i         1.4653068070946178                                367.2                                             2.5072968956555374E7
500                                               4                                                 1499.9999999999998                                13                                                1.4667369742399912                                1.4667369742399912                                367.2                                             2.509744064826186E7
500                                               4                                                 1499.9999999999998                                13                                                1.4668645371083942                                1.4668645371083942                                367.2                                             2.5099623385572568E7
500                                               4                                                 1499.9999999999998                                13                                                1.4676553966380537                                1.4676553966380537                                367.2                                             2.511315583921309E7
500                                               4                                                 1499.9999999999998                                13                                                1.4677988111813627                                1.4677988111813627                                367.2                                             2.5115609815660134E7
500                                               4                                                 1499.9999999999998                                14                                                1.4650326446280424-5.438892903285269E-16i         1.4650326446280424                                371.6                                             2.477145206476148E7
500                                               4                                                 1499.9999999999998                                14                                                1.4664957683524054                                1.4664957683524054                                371.6                                             2.4796191239916224E7
500                                               4                                                 1499.9999999999998                                14                                                1.4666277956062042                                1.4666277956062042                                371.6                                             2.479842361801422E7
500                                               4                                                 1499.9999999999998                                14                                                1.4674360554480912                                1.4674360554480912                                371.6                                             2.4812090050637815E7
500                                               4                                                 1499.9999999999998                                14                                                1.4675844999789154                                1.4675844999789154                                371.6                                             2.481460001967712E7
500                                               4                                                 1499.9999999999998                                15                                                1.4647798942539378                                1.4647798942539378                                376                                               2.447734976018194E7
500                                               4                                                 1499.9999999999998                                15                                                1.4662762956811684                                1.4662762956811684                                376                                               2.4502355524706453E7
500                                               4                                                 1499.9999999999998                                15                                                1.4664128842888307                                1.4664128842888307                                376                                               2.450463800218728E7
500                                               4                                                 1499.9999999999998                                15                                                1.467238684711518                                 1.467238684711518                                 376                                               2.4518437622087527E7
500                                               4                                                 1499.9999999999998                                15                                                1.4673922689330463                                1.4673922689330463                                376                                               2.452100410646019E7
500                                               4                                                 1499.9999999999998                                16                                                1.4645411635749501                                1.4645411635749501                                380.3999999999999                                 2.419028265177135E7
500                                               4                                                 1499.9999999999998                                16                                                1.4660711686531331                                1.4660711686531331                                380.3999999999999                                 2.421555422229488E7
500                                               4                                                 1499.9999999999998                                16                                                1.4662124169013786                                1.4662124169013786                                380.3999999999999                                 2.4217887263614647E7
500                                               4                                                 1499.9999999999998                                16                                                1.4670559003212267                                1.4670559003212267                                380.3999999999999                                 2.423181934203326E7