% Model:              HY_Ge-backup.mph
% Version:            COMSOL 6.2.0.415
% Date:               Jul 31 2024, 10:41
% Table:              Table 1 - All_Compacted
% height_substrate (nm)                           ratio                                             height_waveguide (nm)                             daddy                                             Effective mode index                              real(ewfd.neff) (1)                               Wavelength in free space (nm)                     Propagation constant (rad/m)
250                                               1                                                 500                                               1                                                 1.4080830150900685-7.994406099822984E-10i         1.4080830150900685                                314.4                                             2.814009704740156E7
250                                               1                                                 500                                               1                                                 1.408774864243145-4.3308669982168757E-11i         1.408774864243145                                 314.4                                             2.8153923435548488E7
250                                               1                                                 500                                               1                                                 1.4138419350605924                                1.4138419350605924                                314.4                                             2.8255187255238768E7
250                                               1                                                 500                                               1                                                 1.4451260504141428                                1.4451260504141428                                314.4                                             2.888039048023094E7
250                                               1                                                 500                                               1                                                 1.4460921608658437                                1.4460921608658437                                314.4                                             2.8899697894337937E7
250                                               1                                                 500                                               2                                                 1.4040617409863878-3.9316935049508315E-9i         1.4040617409863878                                318.8                                             2.7672459539958157E7
250                                               1                                                 500                                               2                                                 1.4047407160789729-1.386474076134263E-10i         1.4047407160789729                                318.8                                             2.7685841366575696E7
250                                               1                                                 500                                               2                                                 1.4096881002481854                                1.4096881002481854                                318.8                                             2.7783348680004083E7
250                                               1                                                 500                                               2                                                 1.4417566480289172                                1.4417566480289172                                318.8                                             2.8415383272972967E7
250                                               1                                                 500                                               2                                                 1.4427439933444743                                1.4427439933444743                                318.8                                             2.8434842725858226E7
250                                               1                                                 500                                               3                                                 1.400646739028847-5.365517770037487E-9i           1.400646739028847                                 323.19999999999993                                2.722934100004657E7
250                                               1                                                 500                                               3                                                 1.4012722406708225-2.7266724503303344E-10i        1.4012722406708225                                323.19999999999993                                2.7241501095116116E7
250                                               1                                                 500                                               3                                                 1.406037151038534                                 1.406037151038534                                 323.19999999999993                                2.7334133566689238E7
250                                               1                                                 500                                               3                                                 1.4388890615291343                                1.4388890615291343                                323.19999999999993                                2.797279272915E7
250                                               1                                                 500                                               3                                                 1.4398977340552839                                1.4398977340552839                                323.19999999999993                                2.7992401876415033E7
250                                               1                                                 500                                               4                                                 1.397634844561913-7.1802918930828444E-9i          1.397634844561913                                 327.6                                             2.6805856899125867E7
250                                               1                                                 500                                               4                                                 1.398230852915149-4.4575722918253177E-10i         1.398230852915149                                 327.6                                             2.6817288006964725E7
250                                               1                                                 500                                               4                                                 1.4027872732443958+1.5973685530089374E-16i        1.4027872732443958                                327.6                                             2.6904677607898965E7
250                                               1                                                 500                                               4                                                 1.436422039108856                                 1.436422039108856                                 327.6                                             2.7549773660066247E7
250                                               1                                                 500                                               4                                                 1.4374520814869578                                1.4374520814869578                                327.6                                             2.7569529298454106E7
250                                               1                                                 500                                               5                                                 1.394944187181628-9.471751799273233E-9i           1.394944187181628                                 331.99999999999994                                2.6399677172395106E7
250                                               1                                                 500                                               5                                                 1.3955216948577909-6.701795489326238E-10i         1.3955216948577909                                331.99999999999994                                2.6410606653556705E7
250                                               1                                                 500                                               5                                                 1.399856314277947-2.51769644314007E-16i           1.399856314277947                                 331.99999999999994                                2.6492640439860743E7
250                                               1                                                 500                                               5                                                 1.434273758818671                                 1.434273758818671                                 331.99999999999994                                2.7143999421333466E7
250                                               1                                                 500                                               5                                                 1.4353251612769429                                1.4353251612769429                                331.99999999999994                                2.716389748301343E7
250                                               1                                                 500                                               6                                                 1.3925089388320397-1.2344010718129155E-8i         1.3925089388320397                                336.4                                             2.6008893295439087E7
250                                               1                                                 500                                               6                                                 1.3930739152972096-9.612214483694338E-10i         1.3930739152972096                                336.4                                             2.6019445768164586E7
250                                               1                                                 500                                               6                                                 1.3971780155240319-4.029837437647679E-16i         1.3971780155240319                                336.4                                             2.6096101006703116E7
250                                               1                                                 500                                               6                                                 1.4323780824454493                                1.4323780824454493                                336.4                                             2.6753558031948026E7
250                                               1                                                 500                                               6                                                 1.4334507817750288                                1.4334507817750288                                336.4                                             2.6773593610624116E7
250                                               1                                                 500                                               7                                                 1.3902759577315285-1.5914644954545687E-8i         1.3902759577315285                                340.8                                             2.5631929197604947E7
250                                               1                                                 500                                               7                                                 1.3908321904037269-1.3364273400925454E-9i         1.3908321904037269                                340.8                                             2.5642184223876454E7
250                                               1                                                 500                                               7                                                 1.39469899366539-1.746886594806593E-15i           1.39469899366539                                  340.8                                             2.5713474838428788E7
250                                               1                                                 500                                               7                                                 1.430681549995078                                 1.430681549995078                                 340.8                                             2.6376869994665463E7
250                                               1                                                 500                                               7                                                 1.4317754296061094                                1.4317754296061094                                340.8                                             2.6397037389911518E7
250                                               1                                                 500                                               8                                                 1.388202324506206-2.0330188883403322E-8i          1.388202324506206                                 345.19999999999993                                2.5267475228070516E7
250                                               1                                                 500                                               8                                                 1.388752570355214-1.8159695198152643E-9i          1.388752570355214                                 345.19999999999993                                2.5277490571737442E7
250                                               1                                                 500                                               8                                                 1.3923763194821803-4.781196833484379E-15i         1.3923763194821803                                345.19999999999993                                2.5343448530229505E7
250                                               1                                                 500                                               8                                                 1.4291409634970897                                1.4291409634970897                                345.19999999999993                                2.6012623127848763E7
250                                               1                                                 500                                               8                                                 1.4302558541397448                                1.4302558541397448                                345.19999999999993                                2.603291589872084E7
250                                               1                                                 500                                               9                                                 1.3862533767384468-2.576308648028418E-8i          1.3862533767384468                                349.6                                             2.491443606622167E7
250                                               1                                                 500                                               9                                                 1.3867999065848737-2.423038763610023E-9i          1.3867999065848737                                349.6                                             2.492425857280349E7
250                                               1                                                 500                                               9                                                 1.3901755750243039-1.376283115940535E-14i         1.3901755750243039                                349.6                                             2.498492776714141E7
250                                               1                                                 500                                               9                                                 1.4277214408403436                                1.4277214408403436                                349.6                                             2.5659720766113598E7
250                                               1                                                 500                                               9                                                 1.428857121711405                                 1.428857121711405                                 349.6                                             2.5680131788318112E7
250                                               1                                                 500                                               10                                                1.384401124791672-3.2424536714418126E-8i          1.384401124791672                                 354                                               2.4571889283994142E7
250                                               1                                                 500                                               10                                                1.384946023978453-3.1841094576164896E-9i          1.384946023978453                                 354                                               2.4581560760164414E7
250                                               1                                                 500                                               10                                                1.3880692955576264-3.9937457213455766E-14i        1.3880692955576264                                354                                               2.4636996054222587E7
250                                               1                                                 500                                               10                                                1.4263948453755382                                1.4263948453755382                                354                                               2.5317240493503615E7
250                                               1                                                 500                                               10                                                1.427551045421549                                 1.427551045421549                                 354                                               2.533776201650151E7
250                                               1                                                 500                                               11                                                1.3826229688966134-4.05754763050776E-8i           1.3826229688966134                                358.3999999999999                                 2.42390522420207E7
250                                               1                                                 500                                               11                                                1.3831683340858745-4.129131860420163E-9i          1.3831683340858745                                358.3999999999999                                 2.4248613153137367E7
250                                               1                                                 500                                               11                                                1.3860357227348454-1.1493041916330017E-13i        1.3860357227348454                                358.3999999999999                                 2.429888194283934E7
250                                               1                                                 500                                               11                                                1.4251385165766588                                1.4251385165766588                                358.3999999999999                                 2.498440119433642E7
250                                               1                                                 500                                               11                                                1.4263149158689818                                1.4263149158689818                                358.3999999999999                                 2.5005024896202773E7
250                                               1                                                 500                                               12                                                1.3809006556056624-5.054442409632287E-8i          1.3809006556056624                                362.8                                             2.3915255540176835E7
250                                               1                                                 500                                               12                                                1.3814487493483514-5.291584415147996E-9i          1.3814487493483514                                362.8                                             2.3924747752279975E7
250                                               1                                                 500                                               12                                                1.3840578112194686-3.33589844331715E-13i          1.3840578112194686                                362.8                                             2.396993303126048E7
250                                               1                                                 500                                               12                                                1.4239342423764305                                1.4239342423764305                                362.8                                             2.466053668712647E7
250                                               1                                                 500                                               12                                                1.425130473484363                                 1.425130473484363                                 362.8                                             2.4681253726049714E7
250                                               1                                                 500                                               13                                                1.3792194247863687-6.275291059694361E-8i          1.3792194247863687                                367.2                                             2.3599921637239628E7
250                                               1                                                 500                                               13                                                1.379772819375235-6.708447201399345E-9i           1.379772819375235                                 367.2                                             2.360939081139496E7
250                                               1                                                 500                                               13                                                1.3821224434535475-9.723883412341604E-13i         1.3821224434535475                                367.2                                             2.36495953960525E7
250                                               1                                                 500                                               13                                                1.4227674259423182                                1.4227674259423182                                367.2                                             2.434507458119415E7
250                                               1                                                 500                                               13                                                1.4239830752573812                                1.4239830752573812                                367.2                                             2.436587564305441E7
250                                               1                                                 500                                               14                                                1.3775673086054916-7.775097153997762E-8i          1.3775673086054916                                371.6                                             2.3292547559421282E7
250                                               1                                                 500                                               14                                                1.3781290377991715-8.419988962032011E-9i          1.3781290377991715                                371.6                                             2.330204553739853E7
250                                               1                                                 500                                               14                                                1.3802198163873418-2.8459922101189462E-12i        1.3802198163873418                                371.6                                             2.3337397392365582E7
250                                               1                                                 500                                               14                                                1.4216264091963113                                1.4216264091963113                                371.6                                             2.403751928568551E7
250                                               1                                                 500                                               14                                                1.4228610181788315                                1.4228610181788315                                371.6                                             2.40583946275022E7
250                                               1                                                 500                                               15                                                1.3759345531395306-9.626849472145538E-8i          1.3759345531395306                                376                                               2.2992690872146297E7
250                                               1                                                 500                                               15                                                1.3765082829691915-1.0469522479004112E-8i         1.3765082829691915                                376                                               2.3002278241391018E7
250                                               1                                                 500                                               15                                                1.3783429692530336-8.340466444568738E-12i         1.3783429692530336                                376                                               2.303293694857698E7
250                                               1                                                 500                                               15                                                1.4205019228813835                                1.4205019228813835                                376                                               2.373743832624643E7
250                                               1                                                 500                                               15                                                1.4217549892194428                                1.4217549892194428                                376                                               2.3758377815619342E7
250                                               1                                                 500                                               16                                                1.3743131437377323-1.1927933710723678E-7i         1.3743131437377323                                380.3999999999999                                 2.269995833910806E7
250                                               1                                                 500                                               16                                                1.3749033650600249-1.2902942347232625E-8i         1.3749033650600249                                380.3999999999999                                 2.2709707208561826E7
250                                               1                                                 500                                               16                                                1.3764874211773734-2.436427873455757E-11i         1.3764874211773734                                380.3999999999999                                 2.2735871556937937E7
250                                               1                                                 500                                               16                                                1.4193866390088834+2.32327728980353E-16i          1.4193866390088834                                380.3999999999999                                 2.3444451302385993E7