% Model:              HY_Ge-backup.mph
% Version:            COMSOL 6.2.0.415
% Date:               Jul 31 2024, 11:39
% Table:              Table 2 - All_Compacted
% height_substrate (nm)                           ratio                                             height_waveguide (nm)                             daddy                                             Effective mode index                              real(ewfd.neff) (1)                               Wavelength in free space (nm)                     Propagation constant (rad/m)
250                                               2                                                 1000                                              1                                                 1.4609879261997203                                1.4609879261997203                                314.4                                             2.9197385088628676E7
250                                               2                                                 1000                                              1                                                 1.4689531914401155                                1.4689531914401155                                314.4                                             2.9356568414093815E7
250                                               2                                                 1000                                              1                                                 1.4689701169535179                                1.4689701169535179                                314.4                                             2.93569066651661E7
250                                               2                                                 1000                                              1                                                 1.4746762867712646                                1.4746762867712646                                314.4                                             2.9470942677758776E7
250                                               2                                                 1000                                              1                                                 1.474953833823376                                 1.474953833823376                                 314.4                                             2.947648936847086E7
250                                               2                                                 1000                                              2                                                 1.4579757851951298                                1.4579757851951298                                318.8                                             2.8735044014308844E7
250                                               2                                                 1000                                              2                                                 1.4661527467721343                                1.4661527467721343                                318.8                                             2.889620262421476E7
250                                               2                                                 1000                                              2                                                 1.466170220453018                                 1.466170220453018                                 318.8                                             2.8896547010585498E7
250                                               2                                                 1000                                              2                                                 1.4720388164671216                                1.4720388164671216                                318.8                                             2.9012210361431133E7
250                                               2                                                 1000                                              2                                                 1.4723279049005833                                1.4723279049005833                                318.8                                             2.901790796556414E7
250                                               2                                                 1000                                              3                                                 1.455466694560493                                 1.455466694560493                                 323.19999999999993                                2.8295071009751633E7
250                                               2                                                 1000                                              3                                                 1.4638557318372676                                1.4638557318372676                                323.19999999999993                                2.8458158496629145E7
250                                               2                                                 1000                                              3                                                 1.463873762842742                                 1.463873762842742                                 323.19999999999993                                2.845850902926736E7
250                                               2                                                 1000                                              3                                                 1.4699053619282372                                1.4699053619282372                                323.19999999999993                                2.8575766624418292E7
250                                               2                                                 1000                                              3                                                 1.4702062163279939                                1.4702062163279939                                323.19999999999993                                2.8581615398997966E7
250                                               2                                                 1000                                              4                                                 1.453359496452318                                 1.453359496452318                                 327.6                                             2.7874624646395374E7
250                                               2                                                 1000                                              4                                                 1.4619612530153043                                1.4619612530153043                                327.6                                             2.8039601540328495E7
250                                               2                                                 1000                                              4                                                 1.461979850488974                                 1.461979850488974                                 327.6                                             2.8039958229502223E7
250                                               2                                                 1000                                              4                                                 1.4681752503504581                                1.4681752503504581                                327.6                                             2.815878254385442E7
250                                               2                                                 1000                                              4                                                 1.4684881076856293                                1.4684881076856293                                327.6                                             2.8164782973071728E7
250                                               2                                                 1000                                              5                                                 1.451572403211816+2.372567233838405E-16i          1.451572403211816                                 331.99999999999994                                2.7471380711348932E7
250                                               2                                                 1000                                              5                                                 1.4603877402195775                                1.4603877402195775                                331.99999999999994                                2.763821322931581E7
250                                               2                                                 1000                                              5                                                 1.4604069132174113                                1.4604069132174113                                331.99999999999994                                2.7638576083226305E7
250                                               2                                                 1000                                              5                                                 1.4667670970375273                                1.4667670970375273                                331.99999999999994                                2.7758944196267005E7
250                                               2                                                 1000                                              5                                                 1.467092204955714                                 1.467092204955714                                 331.99999999999994                                2.7765096947154954E7
250                                               2                                                 1000                                              6                                                 1.4500392679304273+3.165007002081712E-16i         1.4500392679304273                                336.4                                             2.7083428725011606E7
250                                               2                                                 1000                                              6                                                 1.459069225049692                                 1.459069225049692                                 336.4                                             2.725208774372809E7
250                                               2                                                 1000                                              6                                                 1.459088982491775                                 1.459088982491775                                 336.4                                             2.7252456767716803E7
250                                               2                                                 1000                                              6                                                 1.4656150889153448                                1.4656150889153448                                336.4                                             2.7374349561990477E7
250                                               2                                                 1000                                              6                                                 1.4659527043497451                                1.4659527043497451                                336.4                                             2.7380655448842146E7
250                                               2                                                 1000                                              7                                                 1.4487065911271266+3.3288990619693263E-16i        1.4487065911271266                                340.8                                             2.6709190046315096E7
250                                               2                                                 1000                                              7                                                 1.4579523538593337                                1.4579523538593337                                340.8                                             2.687965025920439E7
250                                               2                                                 1000                                              7                                                 1.4579727044997237                                1.4579727044997237                                340.8                                             2.6880025455344915E7
250                                               2                                                 1000                                              7                                                 1.464666002212783                                 1.464666002212783                                 340.8                                             2.700342695137565E7
250                                               2                                                 1000                                              7                                                 1.4650163902384497                                1.4650163902384497                                340.8                                             2.7009886907052524E7
250                                               2                                                 1000                                              8                                                 1.4475311134473856+4.580700150551204E-16i         1.4475311134473856                                345.19999999999993                                2.634735290758378E7
250                                               2                                                 1000                                              8                                                 1.456993985816879                                 1.456993985816879                                 345.19999999999993                                2.6519592133063838E7
250                                               2                                                 1000                                              8                                                 1.457014938225995                                 1.457014938225995                                 345.19999999999993                                2.651997350000795E7
250                                               2                                                 1000                                              8                                                 1.4638768044638184                                1.4638768044638184                                345.19999999999993                                2.664487030512187E7
250                                               2                                                 1000                                              8                                                 1.464240237352918                                 1.464240237352918                                 345.19999999999993                                2.6651485357812878E7
250                                               2                                                 1000                                              9                                                 1.4464778759870807+3.8528227672575344E-16i        1.4464778759870807                                349.6                                             2.599682075961773E7
250                                               2                                                 1000                                              9                                                 1.4561592577173401                                1.4561592577173401                                349.6                                             2.6170819373578724E7
250                                               2                                                 1000                                              9                                                 1.4561808202729838                                1.4561808202729838                                349.6                                             2.6171206906567298E7
250                                               2                                                 1000                                              9                                                 1.463212722671097                                 1.463212722671097                                 349.6                                             2.6297587758481905E7
250                                               2                                                 1000                                              9                                                 1.4635894791080442                                1.4635894791080442                                349.6                                             2.63043590127983E7
250                                               2                                                 1000                                              10                                                1.44551865461152+3.263388395957664E-16i           1.44551865461152                                  354                                               2.565667110708787E7
250                                               2                                                 1000                                              10                                                1.455420022051578                                 1.455420022051578                                 354                                               2.5832411577201877E7
250                                               2                                                 1000                                              10                                                1.4554422029357947                                1.4554422029357947                                354                                               2.5832805268178742E7
250                                               2                                                 1000                                              10                                                1.4626456842147366                                1.4626456842147366                                354                                               2.596066065725329E7
250                                               2                                                 1000                                              10                                                1.4630360486400207                                1.4630360486400207                                354                                               2.5967589278782643E7
250                                               2                                                 1000                                              11                                                1.4446306940344504+3.3341865285217576E-16i        1.4446306940344504                                358.3999999999999                                 2.5326122631299965E7
250                                               2                                                 1000                                              11                                                1.454753584216072                                 1.454753584216072                                 358.3999999999999                                 2.5503589134802632E7
250                                               2                                                 1000                                              11                                                1.454776391415891                                 1.454776391415891                                 358.3999999999999                                 2.550398897258947E7
250                                               2                                                 1000                                              11                                                1.4621530564618568                                1.4621530564618568                                358.3999999999999                                 2.56333108292658E7
250                                               2                                                 1000                                              11                                                1.462557318519856                                 1.462557318519856                                 358.3999999999999                                 2.5640398031897135E7
250                                               2                                                 1000                                              12                                                1.443795682650486+2.5592309265100293E-16i         1.443795682650486                                 362.8                                             2.5004508874859024E7
250                                               2                                                 1000                                              12                                                1.4541416799605285                                1.4541416799605285                                362.8                                             2.5183686984799977E7
250                                               2                                                 1000                                              12                                                1.4541651212712914                                1.4541651212712914                                362.8                                             2.5184092955305398E7
250                                               2                                                 1000                                              12                                                1.461716626240162                                 1.461716626240162                                 362.8                                             2.5314874391544376E7
250                                               2                                                 1000                                              12                                                1.462135080312108                                 1.462135080312108                                 362.8                                             2.5322121427036606E7
250                                               2                                                 1000                                              13                                                1.442998921123592+2.4227196710075013E-16i         1.442998921123592                                 367.2                                             2.4691257133659445E7
250                                               2                                                 1000                                              13                                                1.4535696461602396                                1.4535696461602396                                367.2                                             2.4872133561318755E7
250                                               2                                                 1000                                              13                                                1.4535937291905972                                1.4535937291905972                                367.2                                             2.4872545647763457E7
250                                               2                                                 1000                                              13                                                1.4613217723185472                                1.4613217723185472                                367.2                                             2.5004780743174095E7
250                                               2                                                 1000                                              13                                                1.4617547171253278                                1.4617547171253278                                367.2                                             2.501218889254442E7
250                                               2                                                 1000                                              14                                                1.4422286472067236                                1.4422286472067236                                371.6                                             2.4385871490104344E7
250                                               2                                                 1000                                              14                                                1.453025747459204                                 1.453025747459204                                 371.6                                             2.456843387349113E7
250                                               2                                                 1000                                              14                                                1.453050479637125                                 1.453050479637125                                 371.6                                             2.456885205663679E7
250                                               2                                                 1000                                              14                                                1.4609567934893308                                1.4609567934893308                                371.6                                             2.470253568158332E7
250                                               2                                                 1000                                              14                                                1.4614045317515258                                1.4614045317515258                                371.6                                             2.471010624797322E7
250                                               2                                                 1000                                              15                                                1.4414754867572548+1.8460032381537394E-16i        1.4414754867572548                                376                                               2.408791914641682E7
250                                               2                                                 1000                                              15                                                1.452500628810867                                 1.452500628810867                                 376                                               2.4272155876631778E7
250                                               2                                                 1000                                              15                                                1.452526017390281                                 1.452526017390281                                 376                                               2.427258013500716E7
250                                               2                                                 1000                                              15                                                1.4606123623221499                                1.4606123623221499                                376                                               2.4407707804328185E7
250                                               2                                                 1000                                              15                                                1.4610752004678584                                1.4610752004678584                                376                                               2.4415442107085414E7
250                                               2                                                 1000                                              16                                                1.440732006869912                                 1.440732006869912                                 380.3999999999999                                 2.379701939313457E7
250                                               2                                                 1000                                              16                                                1.4519868698874037                                1.4519868698874037                                380.3999999999999                                 2.39829194718565E7
250                                               2                                                 1000                                              16                                                1.4520129219552087                                1.4520129219552087                                380.3999999999999                                 2.3983349781976517E7
250                                               2                                                 1000                                              16                                                1.4602810805957822                                1.4602810805957822                                380.3999999999999                                 2.4119917534047708E7