% Model:              HY_Ge-backup.mph
% Version:            COMSOL 6.2.0.415
% Date:               Jul 31 2024, 11:39
% Table:              Table 4 - All_Compacted
% height_substrate (nm)                           ratio                                             height_waveguide (nm)                             daddy                                             Effective mode index                              real(ewfd.neff) (1)                               Wavelength in free space (nm)                     Propagation constant (rad/m)
250                                               6                                                 1000                                              1                                                 1.4748869208957183-6.451947461440617E-15i         1.4748869208957183                                314.4                                             2.947515213461615E7
250                                               6                                                 1000                                              1                                                 1.4756794725011617                                1.4756794725011617                                314.4                                             2.949099102966228E7
250                                               6                                                 1000                                              1                                                 1.4760306830835155                                1.4760306830835155                                314.4                                             2.949800986290265E7
250                                               6                                                 1000                                              1                                                 1.4763550230953362                                1.4763550230953362                                314.4                                             2.950449169622581E7
250                                               6                                                 1000                                              1                                                 1.4767165672164686                                1.4767165672164686                                314.4                                             2.9511717041994885E7
250                                               6                                                 1000                                              2                                                 1.4722577243690573-4.2940072139519094E-16i        1.4722577243690573                                318.8                                             2.9016524787130844E7
250                                               6                                                 1000                                              2                                                 1.4730695764332484                                1.4730695764332484                                318.8                                             2.903252546768708E7
250                                               6                                                 1000                                              2                                                 1.4734354310475075                                1.4734354310475075                                318.8                                             2.9039736045908153E7
250                                               6                                                 1000                                              2                                                 1.473765023714914                                 1.473765023714914                                 318.8                                             2.9046231942411296E7
250                                               6                                                 1000                                              2                                                 1.4741416589266059                                1.4741416589266059                                318.8                                             2.905365499394288E7
250                                               6                                                 1000                                              3                                                 1.4701327541996074+1.4557119233877815E-15i        1.4701327541996074                                323.19999999999993                                2.858018725492089E7
250                                               6                                                 1000                                              3                                                 1.4709637750515945                                1.4709637750515945                                323.19999999999993                                2.859634275618068E7
250                                               6                                                 1000                                              3                                                 1.471344558980469                                 1.471344558980469                                 323.19999999999993                                2.8603745404655665E7
250                                               6                                                 1000                                              3                                                 1.4716792016394469                                1.4716792016394469                                323.19999999999993                                2.8610251041530803E7
250                                               6                                                 1000                                              3                                                 1.4720712220762635                                1.4720712220762635                                323.19999999999993                                2.861787213388452E7
250                                               6                                                 1000                                              4                                                 1.4684113400593046                                1.4684113400593046                                327.6                                             2.816331061280985E7
250                                               6                                                 1000                                              4                                                 1.4692614307004497                                1.4692614307004497                                327.6                                             2.8179614877236634E7
250                                               6                                                 1000                                              4                                                 1.4696574451040085                                1.4696574451040085                                327.6                                             2.8187210212651383E7
250                                               6                                                 1000                                              4                                                 1.4699969477435626                                1.4699969477435626                                327.6                                             2.8193721683947463E7
250                                               6                                                 1000                                              4                                                 1.4704046639670114                                1.4704046639670114                                327.6                                             2.820154145374194E7
250                                               6                                                 1000                                              5                                                 1.4670120988750182                                1.4670120988750182                                331.99999999999994                                2.7763580918994583E7
250                                               6                                                 1000                                              5                                                 1.4678811878207705                                1.4678811878207705                                331.99999999999994                                2.7780028650604773E7
250                                               6                                                 1000                                              5                                                 1.4682927475751715                                1.4682927475751715                                331.99999999999994                                2.778781752470682E7
250                                               6                                                 1000                                              5                                                 1.4686369306740763                                1.4686369306740763                                331.99999999999994                                2.7794331278291207E7
250                                               6                                                 1000                                              5                                                 1.4690606674465552                                1.4690606674465552                                331.99999999999994                                2.7802350605589256E7
250                                               6                                                 1000                                              6                                                 1.4658692186484619                                1.4658692186484619                                336.4                                             2.7379096126215328E7
250                                               6                                                 1000                                              6                                                 1.4667572574244363                                1.4667572574244363                                336.4                                             2.7395682666611902E7
250                                               6                                                 1000                                              6                                                 1.467184689353717                                 1.467184689353717                                 336.4                                             2.7403666120886207E7
250                                               6                                                 1000                                              6                                                 1.4675333819419576                                1.4675333819419576                                336.4                                             2.7410178903725553E7
250                                               6                                                 1000                                              6                                                 1.4679734764042247                                1.4679734764042247                                336.4                                             2.7418398865256727E7
250                                               6                                                 1000                                              7                                                 1.46492947634617                                  1.46492947634617                                  340.8                                             2.700828451241942E7
250                                               6                                                 1000                                              7                                                 1.4658364355875044                                1.4658364355875044                                340.8                                             2.7025005735950418E7
250                                               6                                                 1000                                              7                                                 1.4662800770091415                                1.4662800770091415                                340.8                                             2.7033184965005834E7
250                                               6                                                 1000                                              7                                                 1.4666331149570269                                1.4666331149570269                                340.8                                             2.70396937761767E7
250                                               6                                                 1000                                              7                                                 1.4670899151280592                                1.4670899151280592                                340.8                                             2.7048115607523374E7
250                                               6                                                 1000                                              8                                                 1.4641498400421773                                1.4641498400421773                                345.19999999999993                                2.6649839983958144E7
250                                               6                                                 1000                                              8                                                 1.4650757061368473                                1.4650757061368473                                345.19999999999993                                2.66666922094577E7
250                                               6                                                 1000                                              8                                                 1.4655359036584947                                1.4655359036584947                                345.19999999999993                                2.6675068531318694E7
250                                               6                                                 1000                                              8                                                 1.4658931281843328                                1.4658931281843328                                345.19999999999993                                2.6681570581991084E7
250                                               6                                                 1000                                              8                                                 1.466366991719491                                 1.466366991719491                                 345.19999999999993                                2.669019564688597E7
250                                               6                                                 1000                                              9                                                 1.4634955371744984                                1.4634955371744984                                349.6                                             2.630267064158382E7
250                                               6                                                 1000                                              9                                                 1.464440309388865                                 1.464440309388865                                 349.6                                             2.6319650558334216E7
250                                               6                                                 1000                                              9                                                 1.4649174179072955                                1.4649174179072955                                349.6                                             2.63282253902362E7
250                                               6                                                 1000                                              9                                                 1.4652786742874173                                1.4652786742874173                                349.6                                             2.633471806981202E7
250                                               6                                                 1000                                              9                                                 1.4657699674447215                                1.4657699674447215                                349.6                                             2.6343547835108045E7
250                                               6                                                 1000                                              10                                                1.4629384955132436                                1.4629384955132436                                354                                               2.596585779750345E7
250                                               6                                                 1000                                              10                                                1.463902183540465                                 1.463902183540465                                 354                                               2.5982962403303854E7
250                                               6                                                 1000                                              10                                                1.4643965654036357                                1.4643965654036357                                354                                               2.599173724188806E7
250                                               6                                                 1000                                              10                                                1.4647617018657972                                1.4647617018657972                                354                                               2.5998218089498706E7
250                                               6                                                 1000                                              10                                                1.4652707986402187                                1.4652707986402187                                354                                               2.600725410467661E7
250                                               6                                                 1000                                              11                                                1.4624560828062172                                1.4624560828062172                                358.3999999999999                                 2.563862324744262E7
250                                               6                                                 1000                                              11                                                1.4634387046823578                                1.4634387046823578                                358.3999999999999                                 2.565584979692555E7
250                                               6                                                 1000                                              11                                                1.4639507289835216                                1.4639507289835216                                358.3999999999999                                 2.5664826201964587E7
250                                               6                                                 1000                                              11                                                1.464319595763852                                 1.464319595763852                                 358.3999999999999                                 2.567129288258534E7
250                                               6                                                 1000                                              11                                                1.4648468771577263                                1.4648468771577263                                358.3999999999999                                 2.5680536762905486E7
250                                               6                                                 1000                                              12                                                1.4620300862739095-8.528672474452445E-15i         1.4620300862739095                                362.8                                             2.5320303078089114E7
250                                               6                                                 1000                                              12                                                1.4630316666108552                                1.4630316666108552                                362.8                                             2.5337649039657626E7
250                                               6                                                 1000                                              12                                                1.463561708591011                                 1.463561708591011                                 362.8                                             2.534682862064413E7
250                                               6                                                 1000                                              12                                                1.4639341571341293                                1.4639341571341293                                362.8                                             2.5353278905136418E7
250                                               6                                                 1000                                              12                                                1.464480010539309                                 1.464480010539309                                 362.8                                             2.5362732317747492E7
250                                               6                                                 1000                                              13                                                1.4616458851014176-5.721619938903587E-15i         1.4616458851014176                                367.2                                             2.5010326660045553E7
250                                               6                                                 1000                                              13                                                1.4626664535916558                                1.4626664535916558                                367.2                                             2.5027789680042382E7
250                                               6                                                 1000                                              13                                                1.463214894130983                                 1.463214894130983                                 367.2                                             2.503717408510383E7
250                                               6                                                 1000                                              13                                                1.4635907764146634                                1.4635907764146634                                367.2                                             2.5043605833584353E7
250                                               6                                                 1000                                              13                                                1.4641555950865248                                1.4641555950865248                                367.2                                             2.5053270486036044E7
250                                               6                                                 1000                                              14                                                1.4612917785246875+7.689839125196478E-15i         1.4612917785246875                                371.6                                             2.470819976407061E7
250                                               6                                                 1000                                              14                                                1.4623313686790875                                1.4623313686790875                                371.6                                             2.472577763700822E7
250                                               6                                                 1000                                              14                                                1.4628985938614396                                1.4628985938614396                                371.6                                             2.4735368543713324E7
250                                               6                                                 1000                                              14                                                1.4632777618292594                                1.4632777618292594                                371.6                                             2.4741779691733666E7
250                                               6                                                 1000                                              14                                                1.4638619444361602                                1.4638619444361602                                371.6                                             2.4751657322445154E7
250                                               6                                                 1000                                              15                                                1.4609584395850288+1.138017107756178E-15i         1.4609584395850288                                376                                               2.441349096276773E7
250                                               6                                                 1000                                              15                                                1.4620170876687202                                1.4620170876687202                                376                                               2.4431181606610615E7
250                                               6                                                 1000                                              15                                                1.462603488407192                                 1.462603488407192                                 376                                               2.4440980714334242E7
250                                               6                                                 1000                                              15                                                1.4629857934935089                                1.4629857934935089                                376                                               2.444736926141192E7
250                                               6                                                 1000                                              15                                                1.4635897437293548                                1.4635897437293548                                376                                               2.4457461631752703E7
250                                               6                                                 1000                                              16                                                1.4606384705591287                                1.4606384705591287                                380.3999999999999                                 2.4125820655411094E7
250                                               6                                                 1000                                              16                                                1.4617162146958542                                1.4617162146958542                                380.3999999999999                                 2.4143622091070328E7
250                                               6                                                 1000                                              16                                                1.4623221864094547                                1.4623221864094547                                380.3999999999999                                 2.4153631114644095E7
250                                               6                                                 1000                                              16                                                1.4627074791431833                                1.4627074791431833                                380.3999999999999                                 2.4159995114758518E7