% Model:              HY_Ge-backup.mph
% Version:            COMSOL 6.2.0.415
% Date:               Jul 31 2024, 11:39
% Table:              Table 1 - All_Compacted
% height_substrate (nm)                           ratio                                             height_waveguide (nm)                             daddy                                             Effective mode index                              real(ewfd.neff) (1)                               Wavelength in free space (nm)                     Propagation constant (rad/m)
250                                               1                                                 1000                                              1                                                 1.4486332209702162                                1.4486332209702162                                314.4                                             2.8950480182863552E7
250                                               1                                                 1000                                              1                                                 1.4546319252422795                                1.4546319252422795                                314.4                                             2.9070362404696707E7
250                                               1                                                 1000                                              1                                                 1.4556025206599086                                1.4556025206599086                                314.4                                             2.908975944943991E7
250                                               1                                                 1000                                              1                                                 1.4693544876583542                                1.4693544876583542                                314.4                                             2.936458819304504E7
250                                               1                                                 1000                                              1                                                 1.4696173951309026                                1.4696173951309026                                314.4                                             2.9369842316355035E7
250                                               1                                                 1000                                              2                                                 1.4452924729050214                                1.4452924729050214                                318.8                                             2.8485070358638894E7
250                                               1                                                 1000                                              2                                                 1.451429795958348                                 1.451429795958348                                 318.8                                             2.8606030013701867E7
250                                               1                                                 1000                                              2                                                 1.4524423978579273                                1.4524423978579273                                318.8                                             2.862598724512426E7
250                                               1                                                 1000                                              2                                                 1.466572998218383                                 1.466572998218383                                 318.8                                             2.8904485302108083E7
250                                               1                                                 1000                                              2                                                 1.4668460665363863                                1.4668460665363863                                318.8                                             2.890986716799119E7
250                                               1                                                 1000                                              3                                                 1.442453714423188-3.646378893834685E-16i          1.442453714423188                                 323.19999999999993                                2.8042091536975224E7
250                                               1                                                 1000                                              3                                                 1.4487291831838482                                1.4487291831838482                                323.19999999999993                                2.8164090092398014E7
250                                               1                                                 1000                                              3                                                 1.4497846492962994                                1.4497846492962994                                323.19999999999993                                2.818460893265166E7
250                                               1                                                 1000                                              3                                                 1.4642950214248465                                1.4642950214248465                                323.19999999999993                                2.8466698527205482E7
250                                               1                                                 1000                                              3                                                 1.464578432328326                                 1.464578432328326                                 323.19999999999993                                2.847220819064805E7
250                                               1                                                 1000                                              4                                                 1.4400154169120716-7.977567361157017E-16i         1.4400154169120716                                327.6                                             2.7618692642411515E7
250                                               1                                                 1000                                              4                                                 1.4464287139494023                                1.4464287139494023                                327.6                                             2.7741696103081647E7
250                                               1                                                 1000                                              4                                                 1.4475279528991323                                1.4475279528991323                                327.6                                             2.776277889312445E7
250                                               1                                                 1000                                              4                                                 1.462419719064159                                 1.462419719064159                                 327.6                                             2.804839466347259E7
250                                               1                                                 1000                                              4                                                 1.4627136621762171                                1.4627136621762171                                327.6                                             2.805403232843849E7
250                                               1                                                 1000                                              5                                                 1.4378954911928672-1.0744892089607925E-15i        1.4378954911928672                                331.99999999999994                                2.721254163711686E7
250                                               1                                                 1000                                              5                                                 1.4444464220916917                                1.4444464220916917                                331.99999999999994                                2.733651968763446E7
250                                               1                                                 1000                                              5                                                 1.4455903871618128                                1.4455903871618128                                331.99999999999994                                2.7358169520527568E7
250                                               1                                                 1000                                              5                                                 1.4608655713082592                                1.4608655713082592                                331.99999999999994                                2.7647256305447493E7
250                                               1                                                 1000                                              5                                                 1.461170242564163                                 1.461170242564163                                 331.99999999999994                                2.765302228725055E7
250                                               1                                                 1000                                              6                                                 1.436027545926746-1.2131278545471726E-15i         1.436027545926746                                 336.4                                             2.682172169224759E7
250                                               1                                                 1000                                              6                                                 1.4427160124048775                                1.4427160124048775                                336.4                                             2.6946647002303947E7
250                                               1                                                 1000                                              6                                                 1.443905696357487                                 1.443905696357487                                 336.4                                             2.6968867587117333E7
250                                               1                                                 1000                                              6                                                 1.4595666550189097                                1.4595666550189097                                336.4                                             2.726137860185514E7
250                                               1                                                 1000                                              6                                                 1.459882255429644                                 1.459882255429644                                 336.4                                             2.7267273298239402E7
250                                               1                                                 1000                                              7                                                 1.4343578842950362-1.0356118074586406E-15i        1.4343578842950362                                340.8                                             2.6444649013614338E7
250                                               1                                                 1000                                              7                                                 1.441183862065643                                 1.441183862065643                                 340.8                                             2.6570496675690077E7
250                                               1                                                 1000                                              7                                                 1.4424202928208334                                1.4424202928208334                                340.8                                             2.659329222602563E7
250                                               1                                                 1000                                              7                                                 1.4584696571217162                                1.4584696571217162                                340.8                                             2.6889187560429618E7
250                                               1                                                 1000                                              7                                                 1.4587963917933782                                1.4587963917933782                                340.8                                             2.6895211429233413E7
250                                               1                                                 1000                                              8                                                 1.432843088488194-8.751028718319784E-16i          1.432843088488194                                 345.19999999999993                                2.608000765087729E7
250                                               1                                                 1000                                              8                                                 1.4398066090329686                                1.4398066090329686                                345.19999999999993                                2.6206754724959478E7
250                                               1                                                 1000                                              8                                                 1.441090846047426                                 1.441090846047426                                 345.19999999999993                                2.6230129867312245E7
250                                               1                                                 1000                                              8                                                 1.4575314730532563                                1.4575314730532563                                345.19999999999993                                2.65293752498263E7
250                                               1                                                 1000                                              8                                                 1.4578695504026407                                1.4578695504026407                                345.19999999999993                                2.6535528791640736E7
250                                               1                                                 1000                                              9                                                 1.431448073285202-5.995528418531372E-16i          1.431448073285202                                 349.6                                             2.5726697660343554E7
250                                               1                                                 1000                                              9                                                 1.4385492088484035                                1.4385492088484035                                349.6                                             2.585432280518051E7
250                                               1                                                 1000                                              9                                                 1.4398823400660474                                1.4398823400660474                                349.6                                             2.5878282503347676E7
250                                               1                                                 1000                                              9                                                 1.456717271990301                                 1.456717271990301                                 349.6                                             2.618084828399367E7
250                                               1                                                 1000                                              9                                                 1.4570669031118126                                1.4570669031118126                                349.6                                             2.6187132028632157E7
250                                               1                                                 1000                                              10                                                1.4301445148318221-3.511055326197842E-16i         1.4301445148318221                                354                                               2.538379379303611E7
250                                               1                                                 1000                                              10                                                1.437383366066218                                 1.437383366066218                                 354                                               2.5512276967377394E7
250                                               1                                                 1000                                              10                                                1.4387665053368546                                1.4387665053368546                                354                                               2.5536826459871877E7
250                                               1                                                 1000                                              10                                                1.4559989353371816                                1.4559989353371816                                354                                               2.584268677338898E7
250                                               1                                                 1000                                              10                                                1.4563603334866935                                1.4563603334866935                                354                                               2.584910126927332E7
250                                               1                                                 1000                                              11                                                1.4289095801643128-2.0903438426100594E-16i        1.4289095801643128                                358.3999999999999                                 2.5050512498260494E7
250                                               1                                                 1000                                              11                                                1.4362862659612263                                1.4362862659612263                                358.3999999999999                                 2.5179834718726028E7
250                                               1                                                 1000                                              11                                                1.4377205508428346                                1.4377205508428346                                358.3999999999999                                 2.5204979466757365E7
250                                               1                                                 1000                                              11                                                1.4553537943362458                                1.4553537943362458                                358.3999999999999                                 2.5514111543865964E7
250                                               1                                                 1000                                              11                                                1.455727174505633                                 1.455727174505633                                 358.3999999999999                                 2.552065734965359E7
250                                               1                                                 1000                                              12                                                1.4277248982844486                                1.4277248982844486                                362.8                                             2.4726185511563715E7
250                                               1                                                 1000                                              12                                                1.4352395474049664                                1.4352395474049664                                362.8                                             2.4856328656389095E7
250                                               1                                                 1000                                              12                                                1.4367261372839153                                1.4367261372839153                                362.8                                             2.4882074300504897E7
250                                               1                                                 1000                                              12                                                1.4547636078862642                                1.4547636078862642                                362.8                                             2.519445790102133E7
250                                               1                                                 1000                                              12                                                1.4551491864494739                                1.4551491864494739                                362.8                                             2.520113557897922E7
250                                               1                                                 1000                                              13                                                1.4265757256467393                                1.4265757256467393                                367.2                                             2.4410238668198932E7
250                                               1                                                 1000                                              13                                                1.4342284698393046                                1.4342284698393046                                367.2                                             2.45411853181726E7
250                                               1                                                 1000                                              13                                                1.4357685443140435                                1.4357685443140435                                367.2                                             2.4567537642006047E7
250                                               1                                                 1000                                              13                                                1.4542137336520278                                1.4542137336520278                                367.2                                             2.4883154588184062E7
250                                               1                                                 1000                                              13                                                1.454611728067665                                 1.454611728067665                                 367.2                                             2.488996469892663E7
250                                               1                                                 1000                                              14                                                1.4254502684174435                                1.4254502684174435                                371.6                                             2.4102174872539494E7
250                                               1                                                 1000                                              14                                                1.4332412367630196                                1.4332412367630196                                371.6                                             2.4233908182113297E7
250                                               1                                                 1000                                              14                                                1.4348359942457671                                1.4348359942457671                                371.6                                             2.4260873081962902E7
250                                               1                                                 1000                                              14                                                1.4536924550106878                                1.4536924550106878                                371.6                                             2.457970687427603E7
250                                               1                                                 1000                                              14                                                1.4541030835691784                                1.4541030835691784                                371.6                                             2.4586649972568322E7
250                                               1                                                 1000                                              15                                                1.424339131365945                                 1.424339131365945                                 376                                               2.380156037936021E7
250                                               1                                                 1000                                              15                                                1.43226844563899                                  1.43226844563899                                  376                                               2.3934063972276185E7
250                                               1                                                 1000                                              15                                                1.433919102140505                                 1.433919102140505                                 376                                               2.3961647431524906E7
250                                               1                                                 1000                                              15                                                1.4531904338605814                                1.4531904338605814                                376                                               2.4283682932358332E7
250                                               1                                                 1000                                              15                                                1.45361391546745                                  1.45361391546745                                  376                                               2.4290759563768268E7
250                                               1                                                 1000                                              16                                                1.4232348692343662                                1.4232348692343662                                380.3999999999999                                 2.3508013719871264E7
250                                               1                                                 1000                                              16                                                1.4313026401051694                                1.4313026401051694                                380.3999999999999                                 2.3641271604721744E7
250                                               1                                                 1000                                              16                                                1.433010428173261                                 1.433010428173261                                 380.3999999999999                                 2.3669479672274873E7
250                                               1                                                 1000                                              16                                                1.4527002652661996                                1.4527002652661996                                380.3999999999999                                 2.3994702845574323E7