% Model:              HY_Ge-backup.mph
% Version:            COMSOL 6.2.0.415
% Date:               Jul 31 2024, 12:12
% Table:              Table 1 - All_Compacted
% height_substrate (nm)                           ratio                                             height_waveguide (nm)                             daddy                                             Effective mode index                              real(ewfd.neff) (1)                               Wavelength in free space (nm)                     Propagation constant (rad/m)
500                                               1                                                 1000                                              1                                                 1.4574822387048059-7.336854346301452E-10i         1.4574822387048059                                314.4                                             2.912732502450778E7
500                                               1                                                 1000                                              1                                                 1.461770457824994                                 1.461770457824994                                 314.4                                             2.921302373751647E7
500                                               1                                                 1000                                              1                                                 1.4624695303072952                                1.4624695303072952                                314.4                                             2.9226994481630493E7
500                                               1                                                 1000                                              1                                                 1.4713566237499993                                1.4713566237499993                                314.4                                             2.9404600254349105E7
500                                               1                                                 1000                                              1                                                 1.4715621538292234                                1.4715621538292234                                314.4                                             2.9408707708464768E7
500                                               1                                                 1000                                              2                                                 1.4544410528908978-9.260915507294551E-10i         1.4544410528908978                                318.8                                             2.8665378461991515E7
500                                               1                                                 1000                                              2                                                 1.4587705342719628                                1.4587705342719628                                318.8                                             2.8750707614442006E7
500                                               1                                                 1000                                              2                                                 1.4595006105824966                                1.4595006105824966                                318.8                                             2.8765096587928407E7
500                                               1                                                 1000                                              2                                                 1.4686330664832872                                1.4686330664832872                                318.8                                             2.894508690390806E7
500                                               1                                                 1000                                              2                                                 1.4688459265581917                                1.4688459265581917                                318.8                                             2.8949282133817486E7
500                                               1                                                 1000                                              3                                                 1.4519040846924667-1.15589363966504E-9i           1.4519040846924667                                323.19999999999993                                2.822581191947318E7
500                                               1                                                 1000                                              3                                                 1.4562730605889518                                1.4562730605889518                                323.19999999999993                                2.8310747207716428E7
500                                               1                                                 1000                                              3                                                 1.4570347861021276                                1.4570347861021276                                323.19999999999993                                2.832555556957438E7
500                                               1                                                 1000                                              3                                                 1.4664133058803543                                1.4664133058803543                                323.19999999999993                                2.850787913910918E7
500                                               1                                                 1000                                              3                                                 1.4666336121932733                                1.4666336121932733                                323.19999999999993                                2.8512162014692135E7
500                                               1                                                 1000                                              4                                                 1.4497703042901129-1.4285027340573523E-9i         1.4497703042901129                                327.6                                             2.780578594231048E7
500                                               1                                                 1000                                              4                                                 1.4541769152779038                                1.4541769152779038                                327.6                                             2.7890302283619832E7
500                                               1                                                 1000                                              4                                                 1.4549709760978164                                1.4549709760978164                                327.6                                             2.790553192732155E7
500                                               1                                                 1000                                              4                                                 1.4645965801304213                                1.4645965801304213                                327.6                                             2.8090145644752536E7
500                                               1                                                 1000                                              4                                                 1.4648244521176572                                1.4648244521176572                                327.6                                             2.809451610239026E7
500                                               1                                                 1000                                              5                                                 1.4479580559915193-1.7500587827874518E-9i         1.4479580559915193                                331.99999999999994                                2.7402978261500694E7
500                                               1                                                 1000                                              5                                                 1.452400341046617                                 1.452400341046617                                 331.99999999999994                                2.748704964761062E7
500                                               1                                                 1000                                              5                                                 1.4532274595725099                                1.4532274595725099                                331.99999999999994                                2.7502703078240696E7
500                                               1                                                 1000                                              5                                                 1.4631014335593218                                1.4631014335593218                                331.99999999999994                                2.768957057305217E7
500                                               1                                                 1000                                              5                                                 1.4633369926800546                                1.4633369926800546                                331.99999999999994                                2.7694028589938797E7
500                                               1                                                 1000                                              6                                                 1.4464013242340394-2.1273832421012597E-9i         1.4464013242340394                                336.4                                             2.701548022803928E7
500                                               1                                                 1000                                              6                                                 1.4508772159153762                                1.4508772159153762                                336.4                                             2.709907968359428E7
500                                               1                                                 1000                                              6                                                 1.4517381471086426                                1.4517381471086426                                336.4                                             2.711515991612705E7
500                                               1                                                 1000                                              6                                                 1.46186199684625                                  1.46186199684625                                  336.4                                             2.730425035585187E7
500                                               1                                                 1000                                              6                                                 1.4621053656967091                                1.4621053656967091                                336.4                                             2.7308795931313906E7
500                                               1                                                 1000                                              7                                                 1.4450467373515625-2.5679437184708207E-9i         1.4450467373515625                                340.8                                             2.664171487181671E7
500                                               1                                                 1000                                              7                                                 1.4495540604803916                                1.4495540604803916                                340.8                                             2.672481447996744E7
500                                               1                                                 1000                                              7                                                 1.4504495887154645                                1.4504495887154645                                340.8                                             2.6741324954875816E7
500                                               1                                                 1000                                              7                                                 1.4608250020256532                                1.4608250020256532                                340.8                                             2.6932612057183605E7
500                                               1                                                 1000                                              7                                                 1.4610763036645265                                1.4610763036645265                                340.8                                             2.6937245199099794E7
500                                               1                                                 1000                                              8                                                 1.4438511585088634-3.079954149065668E-9i          1.4438511585088634                                345.19999999999993                                2.6280371914533935E7
500                                               1                                                 1000                                              8                                                 1.4483876311982335                                1.4483876311982335                                345.19999999999993                                2.636294288367725E7
500                                               1                                                 1000                                              8                                                 1.4493185675991804                                1.4493185675991804                                345.19999999999993                                2.637988739676053E7
500                                               1                                                 1000                                              8                                                 1.4599473823127131                                1.4599473823127131                                345.19999999999993                                2.657334861472346E7
500                                               1                                                 1000                                              8                                                 1.4602067397429916                                1.4602067397429916                                345.19999999999993                                2.657806932965751E7
500                                               1                                                 1000                                              9                                                 1.4427797450386197-3.672362954516794E-9i          1.4427797450386197                                349.6                                             2.5930356108475298E7
500                                               1                                                 1000                                              9                                                 1.447342981266175                                 1.447342981266175                                 349.6                                             2.6012368862531833E7
500                                               1                                                 1000                                              9                                                 1.4483101614481872                                1.4483101614481872                                349.6                                             2.6029751506436337E7
500                                               1                                                 1000                                              9                                                 1.459194338495792                                 1.459194338495792                                 349.6                                             2.6225367356854673E7
500                                               1                                                 1000                                              9                                                 1.4594618742628909                                1.4594618742628909                                349.6                                             2.623017564289867E7
500                                               1                                                 1000                                              10                                                1.4418043822991318-4.354854029143406E-9i          1.4418043822991318                                354                                               2.559074607539278E7
500                                               1                                                 1000                                              10                                                1.446391895455328                                 1.446391895455328                                 354                                               2.5672170355786864E7
500                                               1                                                 1000                                              10                                                1.447396177603511                                 1.447396177603511                                 354                                               2.5689995471147668E7
500                                               1                                                 1000                                              10                                                1.4585377784028182                                1.4585377784028182                                354                                               2.588774898086707E7
500                                               1                                                 1000                                              10                                                1.4588136142790211                                1.4588136142790211                                354                                               2.5892644822461847E7
500                                               1                                                 1000                                              11                                                1.4409024176385774-5.137831846516748E-9i          1.4409024176385774                                358.3999999999999                                 2.5260761438577715E7
500                                               1                                                 1000                                              11                                                1.445511624655144                                 1.445511624655144                                 358.3999999999999                                 2.5341566410129726E7
500                                               1                                                 1000                                              11                                                1.4465538878844846                                1.4465538878844846                                358.3999999999999                                 2.5359838544640902E7
500                                               1                                                 1000                                              11                                                1.4579550553343852                                1.4579550553343852                                358.3999999999999                                 2.5559714794099357E7
500                                               1                                                 1000                                              11                                                1.458239312067388                                 1.458239312067388                                 358.3999999999999                                 2.556469815829654E7
500                                               1                                                 1000                                              12                                                1.4400556353245832-6.0324134224270585E-9i         1.4400556353245832                                362.8                                             2.4939736519825205E7
500                                               1                                                 1000                                              12                                                1.4446838611182442                                1.4446838611182442                                362.8                                             2.5019890875682537E7
500                                               1                                                 1000                                              12                                                1.4457650040699415                                1.4457650040699415                                362.8                                             2.5038614749742806E7
500                                               1                                                 1000                                              12                                                1.4574279465735922                                1.4574279465735922                                362.8                                             2.524060049664859E7
500                                               1                                                 1000                                              12                                                1.4577207436835207                                1.4577207436835207                                362.8                                             2.5245671330438796E7
500                                               1                                                 1000                                              13                                                1.4392494253625727-7.050388248866831E-9i          1.4392494253625727                                367.2                                             2.4627099245111052E7
500                                               1                                                 1000                                              13                                                1.4438939074115624                                1.4438939074115624                                367.2                                             2.4706571307664625E7
500                                               1                                                 1000                                              13                                                1.4450148470478337                                1.4450148470478337                                367.2                                             2.472575178547741E7
500                                               1                                                 1000                                              13                                                1.4569418250763246                                1.4569418250763246                                367.2                                             2.4929835154507007E7
500                                               1                                                 1000                                              13                                                1.4572432806893372                                1.4572432806893372                                367.2                                             2.493499338293415E7
500                                               1                                                 1000                                              14                                                1.4384721086252252-8.204205759509894E-9i          1.4384721086252252                                371.6                                             2.4322354191877425E7
500                                               1                                                 1000                                              14                                                1.4431300015537125                                1.4431300015537125                                371.6                                             2.440111200783729E7
500                                               1                                                 1000                                              14                                                1.4442916721188577                                1.4442916721188577                                371.6                                             2.4420754073032938E7
500                                               1                                                 1000                                              14                                                1.4564849869049377                                1.4564849869049377                                371.6                                             2.4626924299915913E7
500                                               1                                                 1000                                              14                                                1.4567952176142722                                1.4567952176142722                                371.6                                             2.463216982476717E7
500                                               1                                                 1000                                              15                                                1.4377143882109533-9.50688751296257E-9i           1.4377143882109533                                376                                               2.4025068935978055E7
500                                               1                                                 1000                                              15                                                1.442382768304768                                 1.442382768304768                                 376                                               2.4103080364738125E7
500                                               1                                                 1000                                              15                                                1.4435861204270823                                1.4435861204270823                                376                                               2.4123189099776126E7
500                                               1                                                 1000                                              15                                                1.456048104446887                                 1.456048104446887                                 376                                               2.4331436320232358E7
500                                               1                                                 1000                                              15                                                1.4563672251952238                                1.4563672251952238                                376                                               2.433676901916099E7
500                                               1                                                 1000                                              16                                                1.4369689029323391-1.0971995143211744E-8i         1.4369689029323391                                380.3999999999999                                 2.373486303306636E7
500                                               1                                                 1000                                              16                                                1.4416447725358694                                1.4416447725358694                                380.3999999999999                                 2.3812095827995878E7
500                                               1                                                 1000                                              16                                                1.4428907724486844                                1.4428907724486844                                380.3999999999999                                 2.383267639672602E7
500                                               1                                                 1000                                              16                                                1.4556237814043207                                1.4556237814043207                                380.3999999999999                                 2.4042991472399626E7