% Model:              HY_Ge-backup.mph
% Version:            COMSOL 6.2.0.415
% Date:               Jul 31 2024, 12:12
% Table:              Table 4 - All_Compacted
% height_substrate (nm)                           ratio                                             height_waveguide (nm)                             daddy                                             Effective mode index                              real(ewfd.neff) (1)                               Wavelength in free space (nm)                     Propagation constant (rad/m)
500                                               6                                                 1000                                              1                                                 1.476259156322755-4.37238838906922E-15i           1.476259156322755                                 314.4                                             2.9502575828869164E7
500                                               6                                                 1000                                              1                                                 1.4771821780289016                                1.4771821780289016                                314.4                                             2.952102212792218E7
500                                               6                                                 1000                                              1                                                 1.477386999748245                                 1.477386999748245                                 314.4                                             2.9525115425687987E7
500                                               6                                                 1000                                              1                                                 1.4778502273052692                                1.4778502273052692                                314.4                                             2.9534372883004066E7
500                                               6                                                 1000                                              1                                                 1.4780638013614702                                1.4780638013614702                                314.4                                             2.953864109347454E7
500                                               6                                                 1000                                              2                                                 1.4736667692407235                                1.4736667692407235                                318.8                                             2.9044295458507285E7
500                                               6                                                 1000                                              2                                                 1.4746145146113334                                1.4746145146113334                                318.8                                             2.906297444152976E7
500                                               6                                                 1000                                              2                                                 1.474827969574983                                 1.474827969574983                                 318.8                                             2.9067181396019556E7
500                                               6                                                 1000                                              2                                                 1.4753021974082503                                1.4753021974082503                                318.8                                             2.9076527887093082E7
500                                               6                                                 1000                                              2                                                 1.475524782228017                                 1.475524782228017                                 318.8                                             2.9080914780660085E7
500                                               6                                                 1000                                              3                                                 1.4715787015736712                                1.4715787015736712                                323.19999999999993                                2.8608297265117895E7
500                                               6                                                 1000                                              3                                                 1.4725511483239668                                1.4725511483239668                                323.19999999999993                                2.8627202163426906E7
500                                               6                                                 1000                                              3                                                 1.472773406300176                                 1.472773406300176                                 323.19999999999993                                2.8631522980414905E7
500                                               6                                                 1000                                              3                                                 1.473258545236611                                 1.473258545236611                                 323.19999999999993                                2.8640954347485907E7
500                                               6                                                 1000                                              3                                                 1.4734903180743624                                1.4734903180743624                                323.19999999999993                                2.864546013860213E7
500                                               6                                                 1000                                              4                                                 1.469894327896084                                 1.469894327896084                                 327.6                                             2.8191753492500875E7
500                                               6                                                 1000                                              4                                                 1.4708914915114686                                1.4708914915114686                                327.6                                             2.8210878534555323E7
500                                               6                                                 1000                                              4                                                 1.4711227319963676                                1.4711227319963676                                327.6                                             2.8215313598099716E7
500                                               6                                                 1000                                              4                                                 1.4716187111652976                                1.4716187111652976                                327.6                                             2.8224826201966897E7
500                                               6                                                 1000                                              4                                                 1.471859859463073                                 1.471859859463073                                 327.6                                             2.8229451291836962E7
500                                               6                                                 1000                                              5                                                 1.468532302105247                                 1.468532302105247                                 331.99999999999994                                2.7792351155741874E7
500                                               6                                                 1000                                              5                                                 1.4695542299028055                                1.4695542299028055                                331.99999999999994                                2.7811691401894335E7
500                                               6                                                 1000                                              5                                                 1.4697946408545508                                1.4697946408545508                                331.99999999999994                                2.781624124092955E7
500                                               6                                                 1000                                              5                                                 1.4703014046847656                                1.4703014046847656                                331.99999999999994                                2.7825831876628995E7
500                                               6                                                 1000                                              5                                                 1.4705521247516995                                1.4705521247516995                                331.99999999999994                                2.7830576818318076E7
500                                               6                                                 1000                                              6                                                 1.4674268425523227                                1.4674268425523227                                336.4                                             2.740818899074223E7
500                                               6                                                 1000                                              6                                                 1.4684736085535472                                1.4684736085535472                                336.4                                             2.742774019394957E7
500                                               6                                                 1000                                              6                                                 1.4687233853504214                                1.4687233853504214                                336.4                                             2.743240545524622E7
500                                               6                                                 1000                                              6                                                 1.469240890955499                                 1.469240890955499                                 336.4                                             2.7442071280496538E7
500                                               6                                                 1000                                              6                                                 1.4695013868801874                                1.4695013868801874                                336.4                                             2.7446936750670683E7
500                                               6                                                 1000                                              7                                                 1.4665247510305282-1.7782477826403395E-16i        1.4665247510305282                                340.8                                             2.7037695916344523E7
500                                               6                                                 1000                                              7                                                 1.4675964515591313                                1.4675964515591313                                340.8                                             2.705745440523835E7
500                                               6                                                 1000                                              7                                                 1.4678557961378085                                1.4678557961378085                                340.8                                             2.706223583143037E7
500                                               6                                                 1000                                              7                                                 1.4683840110571384                                1.4683840110571384                                340.8                                             2.7071974306254804E7
500                                               6                                                 1000                                              7                                                 1.4686544938075226                                1.4686544938075226                                340.8                                             2.7076961082202747E7
500                                               6                                                 1000                                              8                                                 1.4657830158350151-1.8378920866345005E-16i        1.4657830158350151                                345.19999999999993                                2.6679566363290705E7
500                                               6                                                 1000                                              8                                                 1.4668797657534156                                1.4668797657534156                                345.19999999999993                                2.6699528944324724E7
500                                               6                                                 1000                                              8                                                 1.467148885892537                                 1.467148885892537                                 345.19999999999993                                2.670442735598172E7
500                                               6                                                 1000                                              8                                                 1.467687786151447                                 1.467687786151447                                 345.19999999999993                                2.6714236191986404E7
500                                               6                                                 1000                                              8                                                 1.46796847282606                                  1.46796847282606                                  345.19999999999993                                2.6719345132860824E7
500                                               6                                                 1000                                              9                                                 1.46516688078415                                  1.46516688078415                                  349.6                                             2.6332708861296095E7
500                                               6                                                 1000                                              9                                                 1.4662888102863723                                1.4662888102863723                                349.6                                             2.6352872737051398E7
500                                               6                                                 1000                                              9                                                 1.4665679190079333                                1.4665679190079333                                349.6                                             2.6357889017996527E7
500                                               6                                                 1000                                              9                                                 1.4671174874596093                                1.4671174874596093                                349.6                                             2.636776613590517E7
500                                               6                                                 1000                                              9                                                 1.4674086006616356                                1.4674086006616356                                349.6                                             2.637299816735167E7
500                                               6                                                 1000                                              10                                                1.464648286824566                                 1.464648286824566                                 354                                               2.59962050733386E7
500                                               6                                                 1000                                              10                                                1.4657955387102388                                1.4657955387102388                                354                                               2.6016567774445083E7
500                                               6                                                 1000                                              10                                                1.4660848537766649                                1.4660848537766649                                354                                               2.602170285968382E7
500                                               6                                                 1000                                              10                                                1.4666450786903906                                1.4666450786903906                                354                                               2.6031646353883363E7
500                                               6                                                 1000                                              10                                                1.4669468460015485                                1.4669468460015485                                354                                               2.603700245539651E7
500                                               6                                                 1000                                              11                                                1.464204612206963                                 1.464204612206963                                 358.3999999999999                                 2.566927708181745E7
500                                               6                                                 1000                                              11                                                1.4653773395689156                                1.4653773395689156                                358.3999999999999                                 2.5689836410305027E7
500                                               6                                                 1000                                              11                                                1.465677083058105                                 1.465677083058105                                 358.3999999999999                                 2.5695091276061717E7
500                                               6                                                 1000                                              11                                                1.4662479569211129                                1.4662479569211129                                358.3999999999999                                 2.5705099385069262E7
500                                               6                                                 1000                                              11                                                1.4665606104569318                                1.4665606104569318                                358.3999999999999                                 2.571058057955167E7
500                                               6                                                 1000                                              12                                                1.4638176524230333                                1.4638176524230333                                362.8                                             2.5351261207537256E7
500                                               6                                                 1000                                              12                                                1.465016016688499                                 1.465016016688499                                 362.8                                             2.537201518974625E7
500                                               6                                                 1000                                              12                                                1.4653264146331924                                1.4653264146331924                                362.8                                             2.5377390845218897E7
500                                               6                                                 1000                                              12                                                1.4659079331361444                                1.4659079331361444                                362.8                                             2.5387461927119672E7
500                                               6                                                 1000                                              12                                                1.4662317091684345                                1.4662317091684345                                362.8                                             2.5393069272237923E7
500                                               6                                                 1000                                              13                                                1.4634727930656346                                1.4634727930656346                                367.2                                             2.5041587012110744E7
500                                               6                                                 1000                                              13                                                1.464696962338958                                 1.464696962338958                                 367.2                                             2.506253385958255E7
500                                               6                                                 1000                                              13                                                1.4650182444192321                                1.4650182444192321                                367.2                                             2.5068031340100627E7
500                                               6                                                 1000                                              13                                                1.4656104055990038                                1.4656104055990038                                367.2                                             2.5078163852149166E7
500                                               6                                                 1000                                              13                                                1.4659455442338492                                1.4659455442338492                                367.2                                             2.5083898433157686E7
500                                               6                                                 1000                                              14                                                1.4631583382221025                                1.4631583382221025                                371.6                                             2.4739760421944056E7
500                                               6                                                 1000                                              14                                                1.464408485884083                                 1.464408485884083                                 371.6                                             2.4760898498966552E7
500                                               6                                                 1000                                              14                                                1.4647408851636872                                1.4647408851636872                                371.6                                             2.4766518860295206E7
500                                               6                                                 1000                                              14                                                1.4653436886806381                                1.4653436886806381                                371.6                                             2.477671134199817E7
500                                               6                                                 1000                                              14                                                1.4656904335822418                                1.4656904335822418                                371.6                                             2.478257426576323E7
500                                               6                                                 1000                                              15                                                1.4628649644851692                                1.4628649644851692                                376                                               2.444535013627926E7
500                                               6                                                 1000                                              15                                                1.4641412680101193                                1.4641412680101193                                376                                               2.4466677932969335E7
500                                               6                                                 1000                                              15                                                1.4644850207096156                                1.4644850207096156                                376                                               2.447242224656183E7
500                                               6                                                 1000                                              15                                                1.4650984672391156                                1.4650984672391156                                376                                               2.4482673305659954E7
500                                               6                                                 1000                                              15                                                1.4654570653921442                                1.4654570653921442                                376                                               2.4488665695676684E7
500                                               6                                                 1000                                              16                                                1.4625852765973781                                1.4625852765973781                                380.3999999999999                                 2.415797665723932E7
500                                               6                                                 1000                                              16                                                1.4638879165547616                                1.4638879165547616                                380.3999999999999                                 2.4179492767230846E7
500                                               6                                                 1000                                              16                                                1.4642432618555672                                1.4642432618555672                                380.3999999999999                                 2.4185362116266064E7
500                                               6                                                 1000                                              16                                                1.4648673525764964                                1.4648673525764964                                380.3999999999999                                 2.419567041712855E7