% Model:              HY_Ge-backup.mph
% Version:            COMSOL 6.2.0.415
% Date:               Jul 31 2024, 16:19
% Table:              Table 4 - All_Compacted
% height_substrate (nm)                           ratio                                             height_waveguide (nm)                             daddy                                             Effective mode index                              real(ewfd.neff) (1)                               Wavelength in free space (nm)                     Propagation constant (rad/m)
1000                                              6                                                 1499.9999999999998                                1                                                 1.479449263231789                                 1.479449263231789                                 314.4                                             2.956632911404466E7
1000                                              6                                                 1499.9999999999998                                1                                                 1.4798990772091785                                1.4798990772091785                                314.4                                             2.957531850518237E7
1000                                              6                                                 1499.9999999999998                                1                                                 1.4799451747194834                                1.4799451747194834                                314.4                                             2.957623974945542E7
1000                                              6                                                 1499.9999999999998                                1                                                 1.4801948544138008                                1.4801948544138008                                314.4                                             2.9581229519769784E7
1000                                              6                                                 1499.9999999999998                                1                                                 1.4802432284674467                                1.4802432284674467                                314.4                                             2.9582196260046873E7
1000                                              6                                                 1499.9999999999998                                2                                                 1.4769467630562974                                1.4769467630562974                                318.8                                             2.9108940405024394E7
1000                                              6                                                 1499.9999999999998                                2                                                 1.4774092758034403                                1.4774092758034403                                318.8                                             2.9118056005078446E7
1000                                              6                                                 1499.9999999999998                                2                                                 1.4774573617930022                                1.4774573617930022                                318.8                                             2.9119003725226175E7
1000                                              6                                                 1499.9999999999998                                2                                                 1.4777137825946944                                1.4777137825946944                                318.8                                             2.912405748750236E7
1000                                              6                                                 1499.9999999999998                                2                                                 1.477764244358512                                 1.477764244358512                                 318.8                                             2.9125052031457797E7
1000                                              6                                                 1499.9999999999998                                3                                                 1.4749488879539214-4.611980864647521E-16i         1.4749488879539214                                323.19999999999993                                2.867381553723066E7
1000                                              6                                                 1499.9999999999998                                3                                                 1.4754241231461682                                1.4754241231461682                                323.19999999999993                                2.8683054370081462E7
1000                                              6                                                 1499.9999999999998                                3                                                 1.4754742374577536                                1.4754742374577536                                323.19999999999993                                2.868402861979134E7
1000                                              6                                                 1499.9999999999998                                3                                                 1.4757373956969464                                1.4757373956969464                                323.19999999999993                                2.8689144560329583E7
1000                                              6                                                 1499.9999999999998                                3                                                 1.4757899870114324                                1.4757899870114324                                323.19999999999993                                2.8690166964334726E7
1000                                              6                                                 1499.9999999999998                                4                                                 1.4733551318794442-7.051662032664084E-15i         1.4733551318794442                                327.6                                             2.8258129782913808E7
1000                                              6                                                 1499.9999999999998                                4                                                 1.4738431318558298                                1.4738431318558298                                327.6                                             2.8267489350317746E7
1000                                              6                                                 1499.9999999999998                                4                                                 1.473895316750687                                 1.473895316750687                                 327.6                                             2.8268490227499135E7
1000                                              6                                                 1499.9999999999998                                4                                                 1.4741652188916623                                1.4741652188916623                                327.6                                             2.8273666800046608E7
1000                                              6                                                 1499.9999999999998                                4                                                 1.4742199841404586                                1.4742199841404586                                327.6                                             2.8274717166977566E7
1000                                              6                                                 1499.9999999999998                                5                                                 1.4720842486152756-2.90877631071059E-15i          1.4720842486152756                                331.99999999999994                                2.7859572656114463E7
1000                                              6                                                 1499.9999999999998                                5                                                 1.4725850714839637                                1.4725850714839637                                331.99999999999994                                2.7869050857590485E7
1000                                              6                                                 1499.9999999999998                                5                                                 1.4726393713533847                                1.4726393713533847                                331.99999999999994                                2.7870078496571597E7
1000                                              6                                                 1499.9999999999998                                5                                                 1.4729160323838428                                1.4729160323838428                                331.99999999999994                                2.787531437766088E7
1000                                              6                                                 1499.9999999999998                                5                                                 1.4729730181910181                                1.4729730181910181                                331.99999999999994                                2.787639284870414E7
1000                                              6                                                 1499.9999999999998                                6                                                 1.4710705399019044+5.100033357369763E-15i         1.4710705399019044                                336.4                                             2.7476244952843003E7
1000                                              6                                                 1499.9999999999998                                6                                                 1.4715842570506494                                1.4715842570506494                                336.4                                             2.7485840018363338E7
1000                                              6                                                 1499.9999999999998                                6                                                 1.4716407181757512                                1.4716407181757512                                336.4                                             2.748689458349909E7
1000                                              6                                                 1499.9999999999998                                6                                                 1.47192416021788                                  1.47192416021788                                  336.4                                             2.7492188634850282E7
1000                                              6                                                 1499.9999999999998                                6                                                 1.4719834151957296                                1.4719834151957296                                336.4                                             2.749329538278786E7
1000                                              6                                                 1499.9999999999998                                7                                                 1.4702608769933558+2.3563548148515657E-14i        1.4702608769933558                                340.8                                             2.710657728886627E7
1000                                              6                                                 1499.9999999999998                                7                                                 1.4707875709580902                                1.4707875709580902                                340.8                                             2.711628772249479E7
1000                                              6                                                 1499.9999999999998                                7                                                 1.470846241309038                                 1.470846241309038                                 340.8                                             2.7117369402914513E7
1000                                              6                                                 1499.9999999999998                                7                                                 1.4711364924281483                                1.4711364924281483                                340.8                                             2.7122720639906842E7
1000                                              6                                                 1499.9999999999998                                7                                                 1.4711980669663411                                1.4711980669663411                                340.8                                             2.712385586359719E7
1000                                              6                                                 1499.9999999999998                                8                                                 1.4696123059011892+5.076124099457076E-15i         1.4696123059011892                                345.19999999999993                                2.6749265491566233E7
1000                                              6                                                 1499.9999999999998                                8                                                 1.4701520685474923                                1.4701520685474923                                345.19999999999993                                2.6759090024383776E7
1000                                              6                                                 1499.9999999999998                                8                                                 1.4702129976150395                                1.4702129976150395                                345.19999999999993                                2.6760199029661857E7
1000                                              6                                                 1499.9999999999998                                8                                                 1.4705100908017588                                1.4705100908017588                                345.19999999999993                                2.6765606594973728E7
1000                                              6                                                 1499.9999999999998                                8                                                 1.4705740368903755                                1.4705740368903755                                345.19999999999993                                2.676677051480121E7
1000                                              6                                                 1499.9999999999998                                9                                                 1.4690901182665668-2.7593109302125823E-15i        1.4690901182665668                                349.6                                             2.6403219239173945E7
1000                                              6                                                 1499.9999999999998                                9                                                 1.4696430492417982                                1.4696430492417982                                349.6                                             2.641315679003052E7
1000                                              6                                                 1499.9999999999998                                9                                                 1.4697062878954126                                1.4697062878954126                                349.6                                             2.6414293346607283E7
1000                                              6                                                 1499.9999999999998                                9                                                 1.4700102601987735                                1.4700102601987735                                349.6                                             2.641975648822704E7
1000                                              6                                                 1499.9999999999998                                9                                                 1.4700766312792335                                1.4700766312792335                                349.6                                             2.6420949342339076E7
1000                                              6                                                 1499.9999999999998                                10                                                1.4686662945281925+8.988306810056664E-16i         1.4686662945281925                                354                                               2.6067521138218716E7
1000                                              6                                                 1499.9999999999998                                10                                                1.4692324999467739                                1.4692324999467739                                354                                               2.6077570781062998E7
1000                                              6                                                 1499.9999999999998                                10                                                1.4692981003146521                                1.4692981003146521                                354                                               2.6078735129276555E7
1000                                              6                                                 1499.9999999999998                                10                                                1.4696089921054276                                1.4696089921054276                                354                                               2.608425318219159E7
1000                                              6                                                 1499.9999999999998                                10                                                1.4696778429443929                                1.4696778429443929                                354                                               2.608547522337739E7
1000                                              6                                                 1499.9999999999998                                11                                                1.468318245415405-6.203306880167091E-15i          1.468318245415405                                 358.3999999999999                                 2.5741394045362115E7
1000                                              6                                                 1499.9999999999998                                11                                                1.468897836743695                                 1.468897836743695                                 358.3999999999999                                 2.575155498207551E7
1000                                              6                                                 1499.9999999999998                                11                                                1.4689658521108475                                1.4689658521108475                                358.3999999999999                                 2.5752747373692572E7
1000                                              6                                                 1499.9999999999998                                11                                                1.4692837064567008                                1.4692837064567008                                358.3999999999999                                 2.5758319744662687E7
1000                                              6                                                 1499.9999999999998                                11                                                1.4693550930389474                                1.4693550930389474                                358.3999999999999                                 2.5759571237756163E7
1000                                              6                                                 1499.9999999999998                                12                                                1.4680277929952392-7.095252239480611E-16i         1.4680277929952392                                362.8                                             2.542417491587365E7
1000                                              6                                                 1499.9999999999998                                12                                                1.4686208861061187                                1.4686208861061187                                362.8                                             2.543444645369082E7
1000                                              6                                                 1499.9999999999998                                12                                                1.4686913708275207                                1.4686913708275207                                362.8                                             2.5435667149848185E7
1000                                              6                                                 1499.9999999999998                                12                                                1.4690162329636594                                1.4690162329636594                                362.8                                             2.544129330475625E7
1000                                              6                                                 1499.9999999999998                                12                                                1.4690902124007752                                1.4690902124007752                                362.8                                             2.544257452447047E7
1000                                              6                                                 1499.9999999999998                                13                                                1.4677803444660633+1.5243782411961988E-15i        1.4677803444660633                                367.2                                             2.51152938303817E7
1000                                              6                                                 1499.9999999999998                                13                                                1.4683870588386212                                1.4683870588386212                                367.2                                             2.5125675363146707E7
1000                                              6                                                 1499.9999999999998                                13                                                1.4684600682649391                                1.4684600682649391                                367.2                                             2.5126924632631253E7
1000                                              6                                                 1499.9999999999998                                13                                                1.4687919851461237                                1.4687919851461237                                367.2                                             2.5132604085983828E7
1000                                              6                                                 1499.9999999999998                                13                                                1.4688686155984145                                1.4688686155984145                                367.2                                             2.5133915315101244E7
1000                                              6                                                 1499.9999999999998                                14                                                1.4675642213364068-5.135345420700145E-15i         1.4675642213364068                                371.6                                             2.481425713897567E7
1000                                              6                                                 1499.9999999999998                                14                                                1.468184679378316                                 1.468184679378316                                 371.6                                             2.4824748131582357E7
1000                                              6                                                 1499.9999999999998                                14                                                1.4682602697921132                                1.4682602697921132                                371.6                                             2.482602624939004E7
1000                                              6                                                 1499.9999999999998                                14                                                1.468599289713861                                 1.468599289713861                                 371.6                                             2.483175855560954E7
1000                                              6                                                 1499.9999999999998                                14                                                1.4686786303232686                                1.4686786303232686                                371.6                                             2.483310008346555E7
1000                                              6                                                 1499.9999999999998                                15                                                1.4673701140968642-1.5829460396932413E-15i        1.4673701140968642                                376                                               2.452063388587194E7
1000                                              6                                                 1499.9999999999998                                15                                                1.4680044405710042                                1.4680044405710042                                376                                               2.4531233861356705E7
1000                                              6                                                 1499.9999999999998                                15                                                1.4680826691318085                                1.4680826691318085                                376                                               2.4532541107483957E7
1000                                              6                                                 1499.9999999999998                                15                                                1.468428841410269                                 1.468428841410269                                 376                                               2.453832585369081E7
1000                                              6                                                 1499.9999999999998                                15                                                1.4685109522426028                                1.4685109522426028                                376                                               2.4539697974901658E7
1000                                              6                                                 1499.9999999999998                                16                                                1.4671906384209135                                1.4671906384209135                                380.3999999999999                                 2.423404485320116E7
1000                                              6                                                 1499.9999999999998                                16                                                1.4678389599602855                                1.4678389599602855                                380.3999999999999                                 2.4244753382040564E7
1000                                              6                                                 1499.9999999999998                                16                                                1.4679198846571493                                1.4679198846571493                                380.3999999999999                                 2.4246090040469382E7
1000                                              6                                                 1499.9999999999998                                16                                                1.4682732593587013                                1.4682732593587013                                380.3999999999999                                 2.4251926840502825E7