% Model:              HY_Ge.mph
% Version:            COMSOL 6.2.0.415
% Date:               Jul 10 2024, 13:50
% Table:              Table 1 - 20240708NEWREDO
% daddy                                           Effective mode index                              Eigenvalue                                        real(ewfd.neff) (1)                               Frequency (Hz)
1                                                 1.527429169517148+2.2186249132285933E-16i         2.7138283173797175E-9-1.8683557136277083E7i       1.527429169517148                                 5.836322998053212E14
1                                                 1.5275324655774039-1.8825490451816613E-16i        -2.302739357702214E-9-1.8684820656630274E7i       1.5275324655774039                                5.836322998053212E14
1                                                 1.5276091126442974                                -1.868575820573711E7i                             1.5276091126442974                                5.836322998053212E14
1                                                 1.5311836840170503                                -1.8729482464650955E7i                            1.5311836840170503                                5.836322998053212E14
1                                                 1.531202161621611                                 -1.872970848323659E7i                             1.531202161621611                                 5.836322998053212E14
2                                                 1.527139511834454+2.583921192564883E-16i          3.138258184027118E-9-1.8547617028553437E7i        1.527139511834454                                 5.79495730670103E14
2                                                 1.5272451093471284-2.0371520223299392E-16i        -2.474188850875255E-9-1.8548899545447983E7i       1.5272451093471284                                5.79495730670103E14
2                                                 1.527323277071189                                 -1.85498489184415E7i                              1.527323277071189                                 5.79495730670103E14
2                                                 1.5309463967589685                                -1.8593852911460333E7i                            1.5309463967589685                                5.79495730670103E14
2                                                 1.53096528826924                                  -1.8594082355132565E7i                            1.53096528826924                                  5.79495730670103E14
3                                                 1.5268492756268552+2.9363550118862923E-16i        3.5412020474754485E-9-1.841358336832332E7i        1.5268492756268552                                5.75417385796545E14
3                                                 1.526957207243872-2.1928484930508932E-16i         -2.6445438449919897E-9-1.8414885008150995E7i      1.526957207243872                                 5.75417385796545E14
3                                                 1.5270369139458                                   -1.841584625954915E7i                             1.5270369139458                                   5.75417385796545E14
3                                                 1.5307088739315398                                -1.8460129570549056E7i                            1.5307088739315398                                5.75417385796545E14
3                                                 1.5307281855608728                                -1.8460362466030214E7i                            1.5307281855608728                                5.75417385796545E14
4                                                 1.526557460207867+3.134312847379336E-16i          3.753520031275361E-9-1.8281404201798204E7i        1.526557460207867                                 5.713960444726811E14
4                                                 1.5266677644780955-2.295594446466671E-16i         -2.749106473433757E-9-1.828272515892022E7i        1.5266677644780955                                5.713960444726811E14
4                                                 1.5267490277494231                                -1.8283698333365746E7i                            1.5267490277494231                                5.713960444726811E14
4                                                 1.5304701164788905                                -1.832826051258754E7i                             1.5304701164788905                                5.713960444726811E14
4                                                 1.5304898547064074                                -1.8328496889222465E7i                            1.5304898547064074                                5.713960444726811E14
5                                                 1.526265069342091+3.133053220470178E-16i          3.725972358637837E-9-1.815105285530282E7i         1.526265069342091                                 5.67430519873817E14
5                                                 1.5263777826864242-2.5363156512358508E-16i        -3.0163043345516817E-9-1.8152393294726867E7i      1.5263777826864242                                5.67430519873817E14
5                                                 1.5264606204553055                                -1.8153378439936295E7i                            1.5264606204553055                                5.67430519873817E14
5                                                 1.5302311256573193                                -1.8198219038458575E7i                            1.5302311256573193                                5.67430519873817E14
5                                                 1.5302512969175572                                -1.8198458924450915E7i                            1.5302512969175572                                5.67430519873817E14
6                                                 1.525971839077633+3.5131125828883576E-16i         4.149161158509747E-9-1.8022488418162394E7i        1.525971839077633                                 5.635196578947368E14
6                                                 1.5260869986853605-2.2831557743284007E-16i        -2.6965208299365485E-9-1.8023848510559488E7i      1.5260869986853605                                5.635196578947368E14
6                                                 1.5261714288763415                                -1.8024845673220117E7i                            1.5261714288763415                                5.635196578947368E14
6                                                 1.5299916377053393                                -1.806996424461996E7i                             1.5299916377053393                                5.635196578947368E14
6                                                 1.530012248503562                                 -1.807020766842553E7i                             1.530012248503562                                 5.635196578947368E14
7                                                 1.5256779862041712+3.6065874526158254E-16i        4.230402730180585E-9-1.7895676738777947E7i        1.5256779862041712                                5.5966233602986925E14
7                                                 1.52579562911116-2.447740710657636E-16i           -2.8711154578075995E-9-1.789705664951476E7i       1.52579562911116                                  5.5966233602986925E14
7                                                 1.5258816697446917                                -1.7898065876480088E7i                            1.5258816697446917                                5.5966233602986925E14
7                                                 1.5297518685461333                                -1.7943461974012908E7i                            1.5297518685461333                                5.5966233602986925E14
7                                                 1.5297729254209715                                -1.794370896389455E7i                             1.5297729254209715                                5.5966233602986925E14
8                                                 1.5253844244397357+3.399955445225659E-16i         3.9609178180173835E-9-1.7770592713424604E7i       1.5253844244397357                                5.558574622991347E14
8                                                 1.5255045882268683-2.6760502764584626E-16i        -3.1175747425805343E-9-1.7771992610844444E7i      1.5255045882268683                                5.558574622991347E14
8                                                 1.5255922572433935                                -1.7773013947080277E7i                            1.5255922572433935                                5.558574622991347E14
8                                                 1.5295127293273023                                -1.781868709775053E7i                             1.5295127293273023                                5.558574622991347E14
8                                                 1.5295342388721682                                -1.7818937682032853E7i                            1.5295342388721682                                5.558574622991347E14
9                                                 1.5250897186631978+3.632810203026879E-16i         4.203613202841726E-9-1.7647184737449817E7i        1.5250897186631978                                5.521039742173112E14
9                                                 1.525212440067397-2.407948087687666E-16i          -2.786295404237628E-9-1.764860477672006E7i        1.525212440067397                                 5.521039742173112E14
9                                                 1.525301755760372                                 -1.7649638270366102E7i                            1.525301755760372                                 5.521039742173112E14
9                                                 1.529272787939699                                 -1.769558805129333E7i                             1.529272787939699                                 5.521039742173112E14
9                                                 1.529294756765982                                 -1.7695842257935166E7i                            1.529294756765982                                 5.521039742173112E14
10                                                1.5247954455243036+3.60938379854679E-16i          4.148492789817298E-9-1.7525437206901196E7i        1.5247954455243036                                5.48400837804878E14
10                                                1.5249207639536755-2.5833014472280776E-16i        -2.9691515299827833E-9-1.7526877570768543E7i      1.5249207639536755                                5.48400837804878E14
10                                                1.5250117441380389                                -1.7527923263495926E7i                            1.5250117441380389                                5.48400837804878E14
10                                                1.529033616759761                                 -1.7574149185991324E7i                            1.529033616759761                                 5.48400837804878E14
10                                                1.5290560516088298                                -1.7574407043882858E7i                            1.5290560516088298                                5.48400837804878E14
11                                                1.524500590822981+3.441193176472154E-16i          3.9288287835693186E-9-1.7405305353807785E7i       1.524500590822981                                 5.447470466384009E14
11                                                1.5246285437150597-2.6382791061364457E-16i        -3.0121374650361123E-9-1.740676619886809E7i       1.5246285437150597                                5.447470466384009E14
11                                                1.5247212066954992                                -1.740782413710652E7i                             1.5247212066954992                                5.447470466384009E14
11                                                1.528794203682585                                 -1.7454325763076436E7i                            1.528794203682585                                 5.447470466384009E14
11                                                1.5288171112688826                                -1.745458730022298E7i                             1.5288171112688826                                5.447470466384009E14
12                                                1.5242061698979923+3.195492153331706E-16i         3.6241641420616305E-9-1.7286768613385446E7i       1.5242061698979923                                5.411416209386281E14
12                                                1.5243367961102658-2.793000743672991E-16i         -3.1676789233912984E-9-1.728825010922965E7i       1.5243367961102658                                5.411416209386281E14
12                                                1.524431159953917                                 -1.7289320335792754E7i                            1.524431159953917                                 5.411416209386281E14
12                                                1.5285555610767858                                -1.7336097188746046E7i                            1.5285555610767858                                5.411416209386281E14
12                                                1.5285789482012255                                -1.7336362433577556E7i                            1.5285789482012255                                5.411416209386281E14
13                                                1.5239115434528248+2.8327423917164457E-16i        3.191627981110137E-9-1.7169788319063038E7i        1.5239115434528248                                5.375836066945607E14
13                                                1.5240448820366048-3.0163920915105496E-16i        -3.398544615075634E-9-1.7171290634120695E7i       1.5240448820366048                                5.375836066945607E14
13                                                1.524140964925529                                 -1.7172373192272447E7i                            1.524140964925529                                 5.375836066945607E14
13                                                1.5283170507696693                                -1.72194248143001E7i                              1.5283170507696693                                5.375836066945607E14
13                                                1.5283409242849908                                -1.7219693795269676E7i                            1.5283409242849908                                5.375836066945607E14
14                                                1.5236172742976823+2.706021215419114E-16i         3.0289369492228534E-9-1.705434027012863E7i        1.5236172742976823                                5.340720748218526E14
14                                                1.5237533646213492-2.9833759903029186E-16i        -3.3393891071372284E-9-1.7055863573077764E7i      1.5237533646213492                                5.340720748218526E14
14                                                1.5238511847117229                                -1.7056958504944596E7i                            1.5238511847117229                                5.340720748218526E14
14                                                1.528079233703831                                 -1.7104284422946822E7i                            1.528079233703831                                 5.340720748218526E14
14                                                1.5281036005107687                                -1.7104557168487202E7i                            1.5281036005107687                                5.340720748218526E14
15                                                1.523323416806044+2.566187899888084E-16i          2.8537759483254597E-9-1.6940395239926267E7i       1.523323416806044                                 5.306061203539823E14
15                                                1.523462298838946-2.844040497776294E-16i          -3.1627669856020753E-9-1.6941939702844072E7i      1.523462298838946                                 5.306061203539823E14
15                                                1.5235618742650185                                -1.6943047049488418E7i                            1.5235618742650185                                5.306061203539823E14
15                                                1.5278421636161832                                -1.6990646786057826E7i                            1.5278421636161832                                5.306061203539823E14
15                                                1.5278670306776712                                -1.6990923324739903E7i                            1.5278670306776712                                5.306061203539823E14
16                                                1.5230295921851305+1.9038210999598683E-16i        2.1035276839565634E-9-1.6827919969549816E7i       1.5230295921851305                                5.271848616647128E14
16                                                1.5231713082753853-2.8970138313255803E-16i        -3.200904116004852E-9-1.6829485787467893E7i       1.5231713082753853                                5.271848616647128E14
16                                                1.5232726569134951                                -1.6830605586308237E7i                            1.5232726569134951                                5.271848616647128E14
16                                                1.5276054621272472                                -1.6878478654405396E7i                            1.5276054621272472                                5.271848616647128E14
16                                                1.527630836538932                                 -1.6878759015713736E7i                            1.527630836538932                                 5.271848616647128E14
17                                                1.5227366294100684                                -1.67168953114971E7i                              1.5227366294100684                                5.2380743972044256E14
17                                                1.5228812152147704-3.254609321478503E-16i         -3.5729726504350816E-9-1.671848260224328E7i       1.5228812152147704                                5.2380743972044256E14
17                                                1.5229843559857916                                -1.671961490144605E7i                             1.5229843559857916                                5.2380743972044256E14
17                                                1.5273699558557141                                -1.6767760859511044E7i                            1.5273699558557141                                5.2380743972044256E14
17                                                1.527395844493863                                 -1.6768045069955144E7i                            1.527395844493863                                 5.2380743972044256E14
18                                                1.522444275267291                                 -1.6607290800970685E7i                            1.522444275267291                                 5.2047301736111106E14
18                                                1.522591774354919-3.407213799463801E-16i          -3.7166936950018197E-9-1.6608899766422434E7i      1.522591774354919                                 5.2047301736111106E14
18                                                1.5226967250305414                                -1.6610044600698559E7i                            1.5226967250305414                                5.2047301736111106E14
18                                                1.5271353914197852                                -1.6658462940004753E7i                            1.5271353914197852                                5.2047301736111106E14
18                                                1.5271618015015043                                -1.6658751029305829E7i                            1.5271618015015043                                5.2047301736111106E14
19                                                1.5221519532596663                                -1.6499073239820316E7i                            1.5221519532596663                                5.171807786083957E14
19                                                1.5223024056816172-3.916035772808048E-16i         -4.2447116325642065E-9-1.6500704039901452E7i      1.5223024056816172                                5.171807786083957E14
19                                                1.5224091847280967                                -1.6501861450831793E7i                            1.5224091847280967                                5.171807786083957E14
19                                                1.5269011935269257                                -1.6550551715957481E7i                            1.5269011935269257                                5.171807786083957E14
19                                                1.5269281321805546                                -1.6550843712310575E7i                            1.5269281321805546                                5.171807786083957E14
20                                                1.5218611794193948                                -1.6392232803591317E7i                            1.5218611794193948                                5.1392992799999994E14
20                                                1.5220146224165343-4.1035975082465317E-16i        -4.4200566120674334E-9-1.639388556493723E7i       1.5220146224165343                                5.1392992799999994E14
20                                                1.5221232486488125                                -1.6395055597074302E7i                            1.5221232486488125                                5.1392992799999994E14
20                                                1.5266688737403804                                -1.6444017319566792E7i                            1.5266688737403804                                5.1392992799999994E14
20                                                1.5266963480150224                                -1.6444313249781802E7i                            1.5266963480150224                                5.1392992799999994E14
21                                                1.5215706364427262                                -1.6286729585575515E7i                            1.5215706364427262                                5.107196899488926E14
21                                                1.5217271159954164-3.688217061907739E-16i         -3.947828152141016E-9-1.6288404525995173E7i       1.5217271159954164                                5.107196899488926E14
21                                                1.5218376070595039                                -1.6289587210544487E7i                            1.5218376070595039                                5.107196899488926E14
21                                                1.5264371174486289                                -1.6338819878512409E7i                            1.5264371174486289                                5.107196899488926E14
21                                                1.5264651347752998                                -1.6339119772984786E7i                            1.5264651347752998                                5.107196899488926E14
22                                                1.5212801348952958+1.993064165476728E-16i         2.1201114245128982E-9-1.618253666762692E7i        1.5212801348952958                                5.075493081264108E14
22                                                1.521439692821153-3.4754338759864016E-16i         -3.696974333917374E-9-1.6184233956592027E7i       1.521439692821153                                 5.075493081264108E14
22                                                1.5215520671187397                                -1.6185429332216464E7i                            1.5215520671187397                                5.075493081264108E14
22                                                1.526205735454998                                 -1.6234932482072331E7i                            1.526205735454998                                 5.075493081264108E14
22                                                1.5262343031481562                                -1.6235236369391594E7i                            1.5262343031481562                                5.075493081264108E14
23                                                1.520991268268885+2.340248939608722E-16i          2.4740691675533583E-9-1.6079646644647507E7i       1.520991268268885                                 5.044180448681996E14
23                                                1.5211539438686572-3.2741861412263837E-16i        -3.4614108113614082E-9-1.6081366421885295E7i      1.5211539438686572                                5.044180448681996E14
23                                                1.521268220083638                                 -1.6082574529515572E7i                            1.521268220083638                                 5.044180448681996E14
23                                                1.52597631640764                                  -1.6132347678670516E7i                            1.52597631640764                                  5.044180448681996E14
23                                                1.526005441712074                                 -1.613265558616051E7i                             1.526005441712074                                 5.044180448681996E14
24                                                1.5207028309085158+2.760552710315675E-16i         2.900512412901376E-9-1.59780228825264E7i          1.5207028309085158                                5.013251806020067E14
24                                                1.5208686663142572-2.7963684390164566E-16i        -2.938143994897811E-9-1.5979765314942395E7i       1.5208686663142572                                5.013251806020067E14
24                                                1.5209848628899643                                -1.5980986192228727E7i                            1.5209848628899643                                5.013251806020067E14
24                                                1.5257476573818014                                -1.6031028868436465E7i                            1.5257476573818014                                5.013251806020067E14
24                                                1.5257773476994856                                -1.6031340824569974E7i                            1.5257773476994856                                5.013251806020067E14
25                                                1.5204158586641965+2.1533215906271343E-16i        2.248706689173571E-9-1.5877653048135811E7i        1.5204158586641965                                4.982700132963989E14
25                                                1.5205848976857084-3.002433926662287E-16i         -3.1354319225122423E-9-1.5879418317104736E7i      1.5205848976857084                                4.982700132963989E14
25                                                1.5207030327357285                                -1.5880651997565484E7i                            1.5207030327357285                                4.982700132963989E14
25                                                1.5255207906810482                                -1.5930963686101075E7i                            1.5255207906810482                                4.982700132963989E14
25                                                1.5255510535084447                                -1.5931279719817061E7i                            1.5255510535084447                                4.982700132963989E14
26                                                1.5201289278382153                                -1.577849957777268E7i                             1.5201289278382153                                4.952518579295153E14
26                                                1.5203012136086465-3.4612322314199074E-16i        -3.5926591686994447E-9-1.57802878543499E7i        1.5203012136086465                                4.952518579295153E14
26                                                1.5204213055962026                                -1.578153437452345E7i                             1.5204213055962026                                4.952518579295153E14
26                                                1.5252942962106577                                -1.583211461080776E7i                             1.5252942962106577                                4.952518579295153E14
26                                                1.5253251390702955                                -1.5832434750789877E7i                            1.5253251390702955                                4.952518579295153E14
27                                                1.5198434103694145                                -1.56805546555777E7i                              1.5198434103694145                                4.922700459770115E14
27                                                1.5200189824294512-3.7273831804208907E-16i        -3.845622205820831E-9-1.5682366070664687E7i       1.5200189824294512                                4.922700459770115E14
27                                                1.5201410502875725                                -1.5683625471276553E7i                            1.5201410502875725                                4.922700459770115E14
27                                                1.5250695415623798                                -1.5734473786489084E7i                            1.5250695415623798                                4.922700459770115E14