% Model:              HY_Ge-backup.mph
% Version:            COMSOL 6.2.0.415
% Date:               Jul 31 2024, 16:08
% Table:              Table 4 - All_Compacted
% height_substrate (nm)                           ratio                                             height_waveguide (nm)                             daddy                                             Effective mode index                              real(ewfd.neff) (1)                               Wavelength in free space (nm)                     Propagation constant (rad/m)
1000                                              6                                                 1000                                              1                                                 1.4777835266051764-4.695162806378502E-16i         1.4777835266051764                                314.4                                             2.953303989045063E7
1000                                              6                                                 1000                                              1                                                 1.4787414101276648                                1.4787414101276648                                314.4                                             2.9552182891959816E7
1000                                              6                                                 1000                                              1                                                 1.4788291101533206                                1.4788291101533206                                314.4                                             2.9553935549442768E7
1000                                              6                                                 1000                                              1                                                 1.4793721250679028                                1.4793721250679028                                314.4                                             2.9564787532053716E7
1000                                              6                                                 1000                                              1                                                 1.4794645680436858                                1.4794645680436858                                314.4                                             2.9566634975906104E7
1000                                              6                                                 1000                                              2                                                 1.4752333851189559-9.783435795893334E-16i         1.4752333851189559                                318.8                                             2.907517167515755E7
1000                                              6                                                 1000                                              2                                                 1.476218173472313                                 1.476218173472313                                 318.8                                             2.9094580733226854E7
1000                                              6                                                 1000                                              2                                                 1.4763096265980367                                1.4763096265980367                                318.8                                             2.909638317029035E7
1000                                              6                                                 1000                                              2                                                 1.4768673659928704                                1.4768673659928704                                318.8                                             2.910737557923281E7
1000                                              6                                                 1000                                              2                                                 1.4769637628430048                                1.4769637628430048                                318.8                                             2.9109275451480057E7
1000                                              6                                                 1000                                              3                                                 1.4731876938049073-1.0923211226069958E-14i        1.4731876938049073                                323.19999999999993                                2.863957695678457E7
1000                                              6                                                 1000                                              3                                                 1.474199440386651                                 1.474199440386651                                 323.19999999999993                                2.8659245865376774E7
1000                                              6                                                 1000                                              3                                                 1.4742947214846323                                1.4742947214846323                                323.19999999999993                                2.866109818219264E7
1000                                              6                                                 1000                                              3                                                 1.4748671858359206                                1.4748671858359206                                323.19999999999993                                2.8672227203235026E7
1000                                              6                                                 1000                                              3                                                 1.4749676153233167                                1.4749676153233167                                323.19999999999993                                2.8674179607565515E7
1000                                              6                                                 1000                                              4                                                 1.4715458819653144-1.2879606579831858E-14i        1.4715458819653144                                327.6                                             2.8223429378525905E7
1000                                              6                                                 1000                                              4                                                 1.4725846788733732                                1.4725846788733732                                327.6                                             2.8243352923916195E7
1000                                              6                                                 1000                                              4                                                 1.4726838672644589                                1.4726838672644589                                327.6                                             2.8245255301942788E7
1000                                              6                                                 1000                                              4                                                 1.4732710787585366                                1.4732710787585366                                327.6                                             2.8256517690928735E7
1000                                              6                                                 1000                                              4                                                 1.4733756243248186                                1.4733756243248186                                327.6                                             2.825852281658806E7
1000                                              6                                                 1000                                              5                                                 1.470226649078056-5.999755726312062E-15i          1.470226649078056                                 331.99999999999994                                2.782441710756361E7
1000                                              6                                                 1000                                              5                                                 1.4712926210108777                                1.4712926210108777                                331.99999999999994                                2.7844590900293045E7
1000                                              6                                                 1000                                              5                                                 1.4713957999205824                                1.4713957999205824                                331.99999999999994                                2.784654358767096E7
1000                                              6                                                 1000                                              5                                                 1.4719977989843491                                1.4719977989843491                                331.99999999999994                                2.7857936574636E7
1000                                              6                                                 1000                                              5                                                 1.4721065481761675                                1.4721065481761675                                331.99999999999994                                2.7859994681034196E7
1000                                              6                                                 1000                                              6                                                 1.4691642513675292-2.550285589130983E-15i         1.4691642513675292                                336.4                                             2.7440639827663362E7
1000                                              6                                                 1000                                              6                                                 1.4702575503970652                                1.4702575503970652                                336.4                                             2.746106016178564E7
1000                                              6                                                 1000                                              6                                                 1.4703648065041741                                1.4703648065041741                                336.4                                             2.7463063461417902E7
1000                                              6                                                 1000                                              6                                                 1.4709816488231042                                1.4709816488231042                                336.4                                             2.747458467008362E7
1000                                              6                                                 1000                                              6                                                 1.4710946928161033                                1.4710946928161033                                336.4                                             2.7476696074233074E7
1000                                              6                                                 1000                                              7                                                 1.4683055220167598-1.7590107507477319E-15i        1.4683055220167598                                340.8                                             2.7070527237049166E7
1000                                              6                                                 1000                                              7                                                 1.469426323127351                                 1.469426323127351                                 340.8                                             2.7091190972584195E7
1000                                              6                                                 1000                                              7                                                 1.4695377461878565                                1.4695377461878565                                340.8                                             2.7093245232374832E7
1000                                              6                                                 1000                                              7                                                 1.4701695001551387                                1.4701695001551387                                340.8                                             2.7104892612788506E7
1000                                              6                                                 1000                                              7                                                 1.4702869333573803                                1.4702869333573803                                340.8                                             2.7107057679017667E7
1000                                              6                                                 1000                                              8                                                 1.467607475262472-2.6289069345559527E-15i         1.467607475262472                                 345.19999999999993                                2.671277440694117E7
1000                                              6                                                 1000                                              8                                                 1.4687559725547088                                1.4687559725547088                                345.19999999999993                                2.6733678871923555E7
1000                                              6                                                 1000                                              8                                                 1.4688716550871521                                1.4688716550871521                                345.19999999999993                                2.6735784476755954E7
1000                                              6                                                 1000                                              8                                                 1.469518399629417                                 1.469518399629417                                 345.19999999999993                                2.6747556249077674E7
1000                                              6                                                 1000                                              8                                                 1.4696403193495535                                1.4696403193495535                                345.19999999999993                                2.6749775380578883E7
1000                                              6                                                 1000                                              9                                                 1.4670353762891182-5.224959228384948E-15i         1.4670353762891182                                349.6                                             2.636629039305624E7
1000                                              6                                                 1000                                              9                                                 1.4682117797565377                                1.4682117797565377                                349.6                                             2.63874333020431E7
1000                                              6                                                 1000                                              9                                                 1.4683318167776358                                1.4683318167776358                                349.6                                             2.63895906671669E7
1000                                              6                                                 1000                                              9                                                 1.4689936395066139                                1.4689936395066139                                349.6                                             2.640148527485189E7
1000                                              6                                                 1000                                              9                                                 1.4691201456750775                                1.4691201456750775                                349.6                                             2.64037589067139E7
1000                                              6                                                 1000                                              10                                                1.4665611835678682-1.0557483288510078E-14i        1.4665611835678682                                354                                               2.603015729003823E7
1000                                              6                                                 1000                                              10                                                1.4677657163643696                                1.4677657163643696                                354                                               2.605153667639132E7
1000                                              6                                                 1000                                              10                                                1.4678902051658689                                1.4678902051658689                                354                                               2.605374624195202E7
1000                                              6                                                 1000                                              10                                                1.4685672008103265                                1.4685672008103265                                354                                               2.6065762312817223E7
1000                                              6                                                 1000                                              10                                                1.4686983957439785                                1.4686983957439785                                354                                               2.6068090906262133E7
1000                                              6                                                 1000                                              11                                                1.466162289648665-1.800630117830803E-14i          1.466162289648665                                 358.3999999999999                                 2.570359753421114E7
1000                                              6                                                 1000                                              11                                                1.4673951857745413                                1.4673951857745413                                358.3999999999999                                 2.57252116938746E7
1000                                              6                                                 1000                                              11                                                1.4675242257339616                                1.4675242257339616                                358.3999999999999                                 2.572747392037312E7
1000                                              6                                                 1000                                              11                                                1.4682164948115068                                1.4682164948115068                                358.3999999999999                                 2.5739610234258853E7
1000                                              6                                                 1000                                              11                                                1.468352483014011                                 1.468352483014011                                 358.3999999999999                                 2.5741994271859087E7
1000                                              6                                                 1000                                              12                                                1.4658205016145884-2.3101448708783968E-14i        1.4658205016145884                                362.8                                             2.5385947736238677E7
1000                                              6                                                 1000                                              12                                                1.467082003958531                                 1.467082003958531                                 362.8                                             2.540779518109103E7
1000                                              6                                                 1000                                              12                                                1.4672156963780825                                1.4672156963780825                                362.8                                             2.5410110545606483E7
1000                                              6                                                 1000                                              12                                                1.4679233440713528                                1.4679233440713528                                362.8                                             2.542236600753872E7
1000                                              6                                                 1000                                              12                                                1.4680642320632435                                1.4680642320632435                                362.8                                             2.5424805989238296E7
1000                                              6                                                 1000                                              13                                                1.4655212143761958-2.22632618110209E-14i          1.4655212143761958                                367.2                                             2.5076637694794383E7
1000                                              6                                                 1000                                              13                                                1.4668115730593625                                1.4668115730593625                                367.2                                             2.5098717113963947E7
1000                                              6                                                 1000                                              13                                                1.4669500210283004                                1.4669500210283004                                367.2                                             2.5101086107003815E7
1000                                              6                                                 1000                                              13                                                1.4676731562349055                                1.4676731562349055                                367.2                                             2.511345972493749E7
1000                                              6                                                 1000                                              13                                                1.467819052408351                                 1.467819052408351                                 367.2                                             2.511595616473424E7
1000                                              6                                                 1000                                              14                                                1.465252739428961-1.6372103370944048E-14i         1.465252739428961                                 371.6                                             2.477517352982961E7
1000                                              6                                                 1000                                              14                                                1.466572210405028                                 1.466572210405028                                 371.6                                             2.479748375762852E7
1000                                              6                                                 1000                                              14                                                1.4667155186814795                                1.4667155186814795                                371.6                                             2.4799906880494498E7
1000                                              6                                                 1000                                              14                                                1.4674542532114367                                1.4674542532114367                                371.6                                             2.4812397746868376E7
1000                                              6                                                 1000                                              14                                                1.4676052677055265                                1.4676052677055265                                371.6                                             2.4814951170039624E7
1000                                              6                                                 1000                                              15                                                1.46500575916999-9.730806952314661E-15i           1.46500575916999                                  376                                               2.4481124098272223E7
1000                                              6                                                 1000                                              15                                                1.4663546030418702                                1.4663546030418702                                376                                               2.4503664087627213E7
1000                                              6                                                 1000                                              15                                                1.466502877951097                                 1.466502877951097                                 376                                               2.4506141850209866E7
1000                                              6                                                 1000                                              15                                                1.4672573258491777                                1.4672573258491777                                376                                               2.4518749126667988E7
1000                                              6                                                 1000                                              15                                                1.4674135704425217                                1.4674135704425217                                376                                               2.452136006744784E7
1000                                              6                                                 1000                                              16                                                1.4647728827993427-4.301951370616101E-15i         1.4647728827993427                                380.3999999999999                                 2.4194110030388843E7
1000                                              6                                                 1000                                              16                                                1.4661513638191577                                1.4661513638191577                                380.3999999999999                                 2.421687883083555E7
1000                                              6                                                 1000                                              16                                                1.466304713165686                                 1.466304713165686                                 380.3999999999999                                 2.421941174976555E7
1000                                              6                                                 1000                                              16                                                1.4670749901394815                                1.4670749901394815                                380.3999999999999                                 2.4232134654508483E7