% Model:              HY_Ge-backup.mph
% Version:            COMSOL 6.2.0.415
% Date:               Jul 31 2024, 16:08
% Table:              Table 3 - All_Compacted
% height_substrate (nm)                           ratio                                             height_waveguide (nm)                             daddy                                             Effective mode index                              real(ewfd.neff) (1)                               Wavelength in free space (nm)                     Propagation constant (rad/m)
1000                                              4                                                 1000                                              1                                                 1.475790538930655-4.867846146484518E-13i          1.475790538930655                                 314.4                                             2.949321065739101E7
1000                                              4                                                 1000                                              1                                                 1.4777907617616148                                1.4777907617616148                                314.4                                             2.9533184482780874E7
1000                                              4                                                 1000                                              1                                                 1.477868934246146                                 1.477868934246146                                 314.4                                             2.9534746735345222E7
1000                                              4                                                 1000                                              1                                                 1.4791302496303504                                1.4791302496303504                                314.4                                             2.955995372736098E7
1000                                              4                                                 1000                                              1                                                 1.479218975413862                                 1.479218975413862                                 314.4                                             2.9561726884292684E7
1000                                              4                                                 1000                                              2                                                 1.4731842283705003-5.570710302298775E-13i         1.4731842283705003                                318.8                                             2.9034785126932945E7
1000                                              4                                                 1000                                              2                                                 1.4752402202950594                                1.4752402202950594                                318.8                                             2.90753063887023E7
1000                                              4                                                 1000                                              2                                                 1.4753217690017348                                1.4753217690017348                                318.8                                             2.9076913620934427E7
1000                                              4                                                 1000                                              2                                                 1.4766185368511509                                1.4766185368511509                                318.8                                             2.9102471439937793E7
1000                                              4                                                 1000                                              2                                                 1.4767110593591102                                1.4767110593591102                                318.8                                             2.9104294953308538E7
1000                                              4                                                 1000                                              3                                                 1.4710821799670892-5.73315740401933E-13i          1.4710821799670892                                323.19999999999993                                2.859864461269471E7
1000                                              4                                                 1000                                              3                                                 1.473194077639306                                 1.473194077639306                                 323.19999999999993                                2.8639701062027443E7
1000                                              4                                                 1000                                              3                                                 1.473279070775462                                 1.473279070775462                                 323.19999999999993                                2.864135337522146E7
1000                                              4                                                 1000                                              3                                                 1.474611376679805                                 1.474611376679805                                 323.19999999999993                                2.8667254132903505E7
1000                                              4                                                 1000                                              3                                                 1.4747077716082049                                1.4747077716082049                                323.19999999999993                                2.8669128103193756E7
1000                                              4                                                 1000                                              4                                                 1.4693837497251403-7.44912114978917E-13i          1.4693837497251403                                327.6                                             2.81819608879165E7
1000                                              4                                                 1000                                              4                                                 1.4715517646760317                                1.4715517646760317                                327.6                                             2.8223542205636848E7
1000                                              4                                                 1000                                              4                                                 1.4716402745671957                                1.4716402745671957                                327.6                                             2.822523977599003E7
1000                                              4                                                 1000                                              4                                                 1.473008253771771                                 1.473008253771771                                 327.6                                             2.8251476854252286E7
1000                                              4                                                 1000                                              4                                                 1.4731086013158725                                1.4731086013158725                                327.6                                             2.8253401464187298E7
1000                                              4                                                 1000                                              5                                                 1.4680075761124298-8.482759802897398E-13i         1.4680075761124298                                331.99999999999994                                2.778242058149981E7
1000                                              4                                                 1000                                              5                                                 1.4702319822769971                                1.4702319822769971                                331.99999999999994                                2.7824518039723936E7
1000                                              4                                                 1000                                              5                                                 1.4703240848828052                                1.4703240848828052                                331.99999999999994                                2.7826261105204556E7
1000                                              4                                                 1000                                              5                                                 1.471727914353675                                 1.471727914353675                                 331.99999999999994                                2.785282893865382E7
1000                                              4                                                 1000                                              5                                                 1.471832298657347                                 1.471832298657347                                 331.99999999999994                                2.785480443842229E7
1000                                              4                                                 1000                                              6                                                 1.4668878647194046-9.209202538003018E-13i         1.4668878647194046                                336.4                                             2.7398122113213435E7
1000                                              4                                                 1000                                              6                                                 1.4691689878579315                                1.4691689878579315                                336.4                                             2.744072829450909E7
1000                                              4                                                 1000                                              6                                                 1.4692647623689181                                1.4692647623689181                                336.4                                             2.7442517144093614E7
1000                                              4                                                 1000                                              6                                                 1.4707046540214974                                1.4707046540214974                                336.4                                             2.7469411038491406E7
1000                                              4                                                 1000                                              6                                                 1.4708131627202363                                1.4708131627202363                                336.4                                             2.7471437733680516E7
1000                                              4                                                 1000                                              7                                                 1.4659714068433252-1.041877715313129E-12i         1.4659714068433252                                340.8                                             2.7027494143847905E7
1000                                              4                                                 1000                                              7                                                 1.4683096155896602                                1.4683096155896602                                340.8                                             2.7070602708519537E7
1000                                              4                                                 1000                                              7                                                 1.4684091440902576                                1.4684091440902576                                340.8                                             2.7072437673345238E7
1000                                              4                                                 1000                                              7                                                 1.4698853390301316                                1.4698853390301316                                340.8                                             2.7099653654438984E7
1000                                              4                                                 1000                                              7                                                 1.469998062870312                                 1.469998062870312                                 340.8                                             2.7101731896153744E7
1000                                              4                                                 1000                                              8                                                 1.4652151822019457-1.177159564931955E-12i         1.4652151822019457                                345.19999999999993                                2.66692308941707E7
1000                                              4                                                 1000                                              8                                                 1.4676108805020052                                1.4676108805020052                                345.19999999999993                                2.6712836387679882E7
1000                                              4                                                 1000                                              8                                                 1.4677142476877985                                1.4677142476877985                                345.19999999999993                                2.671471783374889E7
1000                                              4                                                 1000                                              8                                                 1.469227011324383                                 1.469227011324383                                 345.19999999999993                                2.674225252162439E7
1000                                              4                                                 1000                                              8                                                 1.469344043844647                                 1.469344043844647                                 345.19999999999993                                2.6744382698367685E7
1000                                              4                                                 1000                                              9                                                 1.4645844276614302-1.338877888996607E-12i         1.4645844276614302                                349.6                                             2.632224072370229E7
1000                                              4                                                 1000                                              9                                                 1.4670380483920424                                1.4670380483920424                                349.6                                             2.6366338417420752E7
1000                                              4                                                 1000                                              9                                                 1.467145341331695                                 1.467145341331695                                 349.6                                             2.6368266739566028E7
1000                                              4                                                 1000                                              9                                                 1.468694959239663                                 1.468694959239663                                 349.6                                             2.6396117244346026E7
1000                                              4                                                 1000                                              9                                                 1.4688163965031988                                1.4688163965031988                                349.6                                             2.6398299775324263E7
1000                                              4                                                 1000                                              10                                                1.4640510785928182-1.5656484977440172E-12i        1.4640510785928182                                354                                               2.5985605158120964E7
1000                                              4                                                 1000                                              10                                                1.4665630781800443                                1.4665630781800443                                354                                               2.6030190917720117E7
1000                                              4                                                 1000                                              10                                                1.4666743861140183                                1.4666743861140183                                354                                               2.6032166534599546E7
1000                                              4                                                 1000                                              10                                                1.4682611605323073                                1.4682611605323073                                354                                               2.606033036994079E7
1000                                              4                                                 1000                                              10                                                1.468387100900844                                 1.468387100900844                                 354                                               2.606256569952602E7
1000                                              4                                                 1000                                              11                                                1.4635925088377777-1.7610999242448501E-12i        1.4635925088377777                                358.3999999999999                                 2.565854616971996E7
1000                                              4                                                 1000                                              11                                                1.4661633627193922                                1.4661633627193922                                358.3999999999999                                 2.5703616346438333E7
1000                                              4                                                 1000                                              11                                                1.4662787768890617                                1.4662787768890617                                358.3999999999999                                 2.570563969636888E7
1000                                              4                                                 1000                                              11                                                1.4679030237616373                                1.4679030237616373                                358.3999999999999                                 2.573411470776676E7
1000                                              4                                                 1000                                              11                                                1.4680335677037506                                1.4680335677037506                                358.3999999999999                                 2.5736403300900206E7
1000                                              4                                                 1000                                              12                                                1.4631905104689904-1.976657246698109E-12i         1.4631905104689904                                362.8                                             2.534039999168511E7
1000                                              4                                                 1000                                              12                                                1.4658207092682896                                1.4658207092682896                                362.8                                             2.538595133250848E7
1000                                              4                                                 1000                                              12                                                1.4659403227704093                                1.4659403227704093                                362.8                                             2.5388022869992103E7
1000                                              4                                                 1000                                              12                                                1.467602369246297                                 1.467602369246297                                 362.8                                             2.5416807175386664E7
1000                                              4                                                 1000                                              12                                                1.467737619174219                                 1.467737619174219                                 362.8                                             2.5419149513754684E7
1000                                              4                                                 1000                                              13                                                1.462830466500925-2.214771189514751E-12i          1.462830466500925                                 367.2                                             2.5030596116593875E7
1000                                              4                                                 1000                                              13                                                1.4655205128004243                                1.4655205128004243                                367.2                                             2.5076625690081473E7
1000                                              4                                                 1000                                              13                                                1.4656444204627743                                1.4656444204627743                                367.2                                             2.507874588290153E7
1000                                              4                                                 1000                                              13                                                1.4673446027847472                                1.4673446027847472                                367.2                                             2.5107837823492344E7
1000                                              4                                                 1000                                              13                                                1.4674846629149034                                1.4674846629149034                                367.2                                             2.511023440233744E7
1000                                              4                                                 1000                                              14                                                1.4625006791577815-2.481233100355584E-12i         1.4625006791577815                                371.6                                             2.472864041718067E7
1000                                              4                                                 1000                                              14                                                1.4652510847774962                                1.4652510847774962                                371.6                                             2.477514555221451E7
1000                                              4                                                 1000                                              14                                                1.4653793830521833-1.8463536585125874E-16i        1.4653793830521833                                371.6                                             2.477731487900259E7
1000                                              4                                                 1000                                              14                                                1.467118044773998                                 1.467118044773998                                 371.6                                             2.4806712978530742E7
1000                                              4                                                 1000                                              14                                                1.4672630210072515                                1.4672630210072515                                371.6                                             2.4809164303984642E7
1000                                              4                                                 1000                                              15                                                1.4621918237787157-2.7778428643407295E-12i        1.4621918237787157                                376                                               2.4434101551714223E7
1000                                              4                                                 1000                                              15                                                1.4650031074793943                                1.4650031074793943                                376                                               2.448107978693342E7
1000                                              4                                                 1000                                              15                                                1.4651358943510908-1.751107093782707E-16i         1.4651358943510908                                376                                               2.448329873512818E7
1000                                              4                                                 1000                                              15                                                1.4669133848322928                                1.4669133848322928                                376                                               2.4513001666179083E7
1000                                              4                                                 1000                                              15                                                1.467063384650826                                 1.467063384650826                                 376                                               2.451550825302985E7
1000                                              4                                                 1000                                              16                                                1.461896504373262-2.800589278257644E-12i          1.461896504373262                                 380.3999999999999                                 2.414659999183827E7
1000                                              4                                                 1000                                              16                                                1.4647691899173803                                1.4647691899173803                                380.3999999999999                                 2.4194049033907015E7
1000                                              4                                                 1000                                              16                                                1.4649065648242017-2.0290461225531197E-16i        1.4649065648242017                                380.3999999999999                                 2.419631809803981E7
1000                                              4                                                 1000                                              16                                                1.4667232379593642                                1.4667232379593642                                380.3999999999999                                 2.422632465416705E7