% Model:              HY_Ge-backup.mph
% Version:            COMSOL 6.2.0.415
% Date:               Jul 31 2024, 16:08
% Table:              Table 1 - All_Compacted
% height_substrate (nm)                           ratio                                             height_waveguide (nm)                             daddy                                             Effective mode index                              real(ewfd.neff) (1)                               Wavelength in free space (nm)                     Propagation constant (rad/m)
1000                                              1                                                 1000                                              1                                                 1.4743075750475487-4.448696185080284E-8i          1.4743075750475487                                314.4                                             2.9463574089702047E7
1000                                              1                                                 1000                                              1                                                 1.473735976035616-7.690013451107157E-8i           1.473735976035616                                 314.4                                             2.9452150862878334E7
1000                                              1                                                 1000                                              1                                                 1.474236408301199-7.063635349694802E-8i           1.474236408301199                                 314.4                                             2.946215184461609E7
1000                                              1                                                 1000                                              1                                                 1.4754903744944314-4.1635644465713705E-13i        1.4754903744944314                                314.4                                             2.948721196535724E7
1000                                              1                                                 1000                                              1                                                 1.4756927833678217-1.953273618846882E-12i         1.4756927833678217                                314.4                                             2.9491257043154087E7
1000                                              1                                                 1000                                              2                                                 1.4710798540981134-2.1445999374237303E-7i         1.4710798540981134                                318.8                                             2.89933103041316E7
1000                                              1                                                 1000                                              2                                                 1.4716719761807406-4.755432351581063E-8i          1.4716719761807406                                318.8                                             2.9004980356733922E7
1000                                              1                                                 1000                                              2                                                 1.4715987558272248-7.54337503555702E-8i           1.4715987558272248                                318.8                                             2.9003537266867556E7
1000                                              1                                                 1000                                              2                                                 1.472879873078606-4.4151827569089037E-13i         1.472879873078606                                 318.8                                             2.902878663038905E7
1000                                              1                                                 1000                                              2                                                 1.473090861800044-2.164580778076795E-12i          1.473090861800044                                 318.8                                             2.903294497805066E7
1000                                              1                                                 1000                                              3                                                 1.4689309818262177-2.2812000243346388E-7i         1.4689309818262177                                323.19999999999993                                2.8556824140691135E7
1000                                              1                                                 1000                                              3                                                 1.4695407199999189-5.072432594355161E-8i          1.4695407199999189                                323.19999999999993                                2.8568677785289604E7
1000                                              1                                                 1000                                              3                                                 1.469465431167014-8.039066873385754E-8i           1.469465431167014                                 323.19999999999993                                2.856721412907456E7
1000                                              1                                                 1000                                              3                                                 1.4707735615517235-4.672509847999723E-13i         1.4707735615517235                                323.19999999999993                                2.8592644901392262E7
1000                                              1                                                 1000                                              3                                                 1.4709932967053947-2.390898823575131E-12i         1.4709932967053947                                323.19999999999993                                2.8596916673326105E7
1000                                              1                                                 1000                                              4                                                 1.4671856887585468-2.422268595257307E-7i          1.4671856887585468                                327.6                                             2.813980330437076E7
1000                                              1                                                 1000                                              4                                                 1.4677357751402198-8.551935703259924E-8i          1.4677357751402198                                327.6                                             2.8150353654404357E7
1000                                              1                                                 1000                                              4                                                 1.4678131500453178-5.400478236117386E-8i          1.4678131500453178                                327.6                                             2.8151837661934443E7
1000                                              1                                                 1000                                              4                                                 1.4690708115953535-4.935994363592454E-13i         1.4690708115953535                                327.6                                             2.817595890910352E7
1000                                              1                                                 1000                                              4                                                 1.4692994695088308-2.6334764374628505E-12i        1.4692994695088308                                327.6                                             2.818034444036827E7
1000                                              1                                                 1000                                              5                                                 1.4657625836491954-2.56813349903553E-7i           1.4657625836491954                                331.99999999999994                                2.7739933522283778E7
1000                                              1                                                 1000                                              5                                                 1.4663284167745494-9.083190729011639E-8i          1.4663284167745494                                331.99999999999994                                2.775064205957155E7
1000                                              1                                                 1000                                              5                                                 1.466407897690555-5.7403416580736305E-8i          1.466407897690555                                 331.99999999999994                                2.775214625632952E7
1000                                              1                                                 1000                                              5                                                 1.4676902770139972-5.20709826463873E-13i          1.4676902770139972                                331.99999999999994                                2.7776415614532184E7
1000                                              1                                                 1000                                              5                                                 1.4679280424700938-2.8936106328837835E-12i        1.4679280424700938                                331.99999999999994                                2.7780915386882488E7
1000                                              1                                                 1000                                              6                                                 1.464595849726748-2.7191110919877857E-7i          1.464595849726748                                 336.4                                             2.7355312496906374E7
1000                                              1                                                 1000                                              6                                                 1.4651775565144876-9.634020687724389E-8i          1.4651775565144876                                336.4                                             2.7366177453927215E7
1000                                              1                                                 1000                                              6                                                 1.4652591654114029-6.09278257179036E-8i           1.4652591654114029                                336.4                                             2.7367701722125888E7
1000                                              1                                                 1000                                              6                                                 1.4665661779947559-5.485300345888353E-13i         1.4665661779947559                                336.4                                             2.7392113738356635E7
1000                                              1                                                 1000                                              6                                                 1.4668132431710441-3.1727804739781714E-12i        1.4668132431710441                                336.4                                             2.7396728352760825E7
1000                                              1                                                 1000                                              7                                                 1.4636322617486444-2.8755045133765867E-7i         1.4636322617486444                                340.8                                             2.698436831611827E7
1000                                              1                                                 1000                                              7                                                 1.4642299837162625-1.0205592055422538E-7i         1.4642299837162625                                340.8                                             2.6995388262963098E7
1000                                              1                                                 1000                                              7                                                 1.4643137443308538-6.458546323366332E-8i          1.4643137443308538                                340.8                                             2.699693252195054E7
1000                                              1                                                 1000                                              7                                                 1.4656453194727477-5.77229095272857E-13i          1.4656453194727477                                340.8                                             2.7021482209060144E7
1000                                              1                                                 1000                                              7                                                 1.4659018830644823-3.472318614126693E-12i         1.4659018830644823                                340.8                                             2.702621236337336E7
1000                                              1                                                 1000                                              8                                                 1.4628287875216113-3.0376164305279E-7i            1.4628287875216113                                345.19999999999993                                2.6625794741237305E7
1000                                              1                                                 1000                                              8                                                 1.4634426785452075-1.0799049134068475E-7i         1.4634426785452075                                345.19999999999993                                2.663696852762105E7
1000                                              1                                                 1000                                              8                                                 1.463528616158339-6.838363592274403E-8i           1.463528616158339                                 345.19999999999993                                2.6638532727934383E7
1000                                              1                                                 1000                                              8                                                 1.4648846937488231-6.067628803166664E-13i         1.4648846937488231                                345.19999999999993                                2.6663215482256297E7
1000                                              1                                                 1000                                              8                                                 1.4651509602399573-3.793819616429262E-12i         1.4651509602399573                                345.19999999999993                                2.666806195301206E7
1000                                              1                                                 1000                                              9                                                 1.4621506556881092-3.205725871923942E-7i          1.4621506556881092                                349.6                                             2.627849976173491E7
1000                                              1                                                 1000                                              9                                                 1.462780880088667-1.1415515393727331E-7i          1.462780880088667                                 349.6                                             2.6289826468524985E7
1000                                              1                                                 1000                                              9                                                 1.4628690213376738-7.232950943144182E-8i          1.4628690213376738                                349.6                                             2.6291410586948086E7
1000                                              1                                                 1000                                              9                                                 1.4642495491983971-6.372896535137043E-13i         1.4642495491983971                                349.6                                             2.6316222121189073E7
1000                                              1                                                 1000                                              9                                                 1.4645257282527588-4.139035850360717E-12i         1.4645257282527588                                349.6                                             2.632118574869627E7
1000                                              1                                                 1000                                              10                                                1.461569796338695-3.3801345295138843E-7i          1.461569796338695                                 354                                               2.5941564603877824E7
1000                                              1                                                 1000                                              10                                                1.4622165272495118-1.2056095574291331E-7i         1.4622165272495118                                354                                               2.5953043502625115E7
1000                                              1                                                 1000                                              10                                                1.462306899969911-7.64301201690635E-8i            1.462306899969911                                 354                                               2.5954647538074218E7
1000                                              1                                                 1000                                              10                                                1.4637118316580346-6.688425527278554E-13i         1.4637118316580346                                354                                               2.597958382660645E7
1000                                              1                                                 1000                                              10                                                1.463998137608176-4.509709456935102E-12i          1.463998137608176                                 354                                               2.598466550270613E7
1000                                              1                                                 1000                                              11                                                1.4610635803856833-3.5611068645052087E-7i         1.4610635803856833                                358.3999999999999                                 2.56142109964691E7
1000                                              1                                                 1000                                              11                                                1.4617269983629062-1.2721878188094428E-7i         1.4617269983629062                                358.3999999999999                                 2.5625841515685078E7
1000                                              1                                                 1000                                              11                                                1.461819631454702-8.069238912122495E-8i           1.461819631454702                                 358.3999999999999                                 2.5627465485778075E7
1000                                              1                                                 1000                                              11                                                1.4632489244503692-7.013865293684985E-13i         1.4632489244503692                                358.3999999999999                                 2.5652522720013652E7
1000                                              1                                                 1000                                              11                                                1.4635455758660312-4.907624377415863E-12i         1.4635455758660312                                358.3999999999999                                 2.5657723377983075E7
1000                                              1                                                 1000                                              12                                                1.460613798852152-3.748916764170146E-7i           1.460613798852152                                 362.8                                             2.529577497357111E7
1000                                              1                                                 1000                                              12                                                1.4612940906908782-1.3413938179045296E-7i         1.4612940906908782                                362.8                                             2.530755667060992E7
1000                                              1                                                 1000                                              12                                                1.461389014005519-8.512313820978526E-8i           1.461389014005519                                 362.8                                             2.5309200608801372E7
1000                                              1                                                 1000                                              12                                                1.4628426282165596-7.350968275366057E-13i         1.4628426282165596                                362.8                                             2.533437516076697E7
1000                                              1                                                 1000                                              12                                                1.463149847538833-5.334751916702176E-12i          1.463149847538833                                 362.8                                             2.5339695766973663E7
1000                                              1                                                 1000                                              13                                                1.4602058352000529-3.9438364731818476E-7i         1.4602058352000529                                367.2                                             2.498568586379866E7
1000                                              1                                                 1000                                              13                                                1.4609031929317764-1.413333961438138E-7i          1.4609031929317764                                367.2                                             2.499761840152691E7
1000                                              1                                                 1000                                              13                                                1.461000437176452-8.972910638119047E-8i           1.461000437176452                                 367.2                                             2.4999282354711425E7
1000                                              1                                                 1000                                              13                                                1.4624783337056757-7.699686867862671E-13i         1.4624783337056757                                367.2                                             2.5024570747298434E7
1000                                              1                                                 1000                                              13                                                1.46279634693542-5.793155758921205E-12i           1.46279634693542                                  367.2                                             2.5030012294282686E7
1000                                              1                                                 1000                                              14                                                1.4598279932989369-4.146129242363932E-7i          1.4598279932989369                                371.6                                             2.468344940394332E7
1000                                              1                                                 1000                                              14                                                1.4605426133352442-1.488113826153293E-7i          1.4605426133352442                                371.6                                             2.4695532531263936E7
1000                                              1                                                 1000                                              14                                                1.4606422099917609-9.451696543140646E-8i          1.4606422099917609                                371.6                                             2.4697216557767894E7
1000                                              1                                                 1000                                              14                                                1.4621443501218276-8.060544677347559E-13i         1.4621443501218276                                371.6                                             2.4722615440422792E7
1000                                              1                                                 1000                                              14                                                1.4624733865528687-6.284974525583859E-12i         1.4624733865528687                                371.6                                             2.4728178941146806E7
1000                                              1                                                 1000                                              15                                                1.4594709510821677-4.3560628325278236E-7i         1.4594709510821677                                376                                               2.4388634138550244E7
1000                                              1                                                 1000                                              15                                                1.460203033490222-1.5658384043470882E-7i          1.460203033490222                                 376                                               2.440086767426815E7
1000                                              1                                                 1000                                              15                                                1.4603050147461438-9.949333507539779E-8i          1.4603050147461438                                376                                               2.440257184216393E7
1000                                              1                                                 1000                                              15                                                1.4618313591046916-8.434065480795652E-13i         1.4618313591046916                                376                                               2.44280779710132E7
1000                                              1                                                 1000                                              15                                                1.4621716510945817-6.81257655448899E-12i          1.4621716510945817                                376                                               2.4433764454074442E7
1000                                              1                                                 1000                                              16                                                1.4591273159035096-4.573893100268074E-7i          1.4591273159035096                                380.3999999999999                                 2.4100860443189587E7
1000                                              1                                                 1000                                              16                                                1.4598770637905976-1.6466123305732784E-7i         1.4598770637905976                                380.3999999999999                                 2.4113244262611877E7
1000                                              1                                                 1000                                              16                                                1.4599814624807244-1.0466479722450366E-7i         1.4599814624807244                                380.3999999999999                                 2.4114968648300346E7
1000                                              1                                                 1000                                              16                                                1.461531970354953-8.821756126352625E-13i          1.461531970354953                                 380.3999999999999                                 2.4140578869893458E7