% Model:              HY_Ge-backup.mph
% Version:            COMSOL 6.2.0.415
% Date:               Jul 31 2024, 16:08
% Table:              Table 2 - All_Compacted
% height_substrate (nm)                           ratio                                             height_waveguide (nm)                             daddy                                             Effective mode index                              real(ewfd.neff) (1)                               Wavelength in free space (nm)                     Propagation constant (rad/m)
1000                                              2                                                 1000                                              1                                                 1.474310737516025-3.565489198357074E-8i           1.474310737516025                                 314.4                                             2.946363729064182E7
1000                                              2                                                 1000                                              1                                                 1.4742890672883742-7.217296184654254E-10i         1.4742890672883742                                314.4                                             2.9463204217944685E7
1000                                              2                                                 1000                                              1                                                 1.4746478675937928-1.4778324066224801E-9i         1.4746478675937928                                314.4                                             2.9470374729418024E7
1000                                              2                                                 1000                                              1                                                 1.478023319357299                                 1.478023319357299                                 314.4                                             2.9537832073328823E7
1000                                              2                                                 1000                                              1                                                 1.4780903412546318                                1.4780903412546318                                314.4                                             2.953917148490828E7
1000                                              2                                                 1000                                              2                                                 1.4716748504743842-3.847366623578952E-8i          1.4716748504743842                                318.8                                             2.900503700579161E7
1000                                              2                                                 1000                                              2                                                 1.4716416522951024-6.085909467327348E-10i         1.4716416522951024                                318.8                                             2.9004382707446914E7
1000                                              2                                                 1000                                              2                                                 1.4720170358929547-1.6554116589558281E-9i         1.4720170358929547                                318.8                                             2.9011781091093656E7
1000                                              2                                                 1000                                              2                                                 1.475480754883089                                 1.475480754883089                                 318.8                                             2.908004705178064E7
1000                                              2                                                 1000                                              2                                                 1.4755507086080966                                1.4755507086080966                                318.8                                             2.908142576011549E7
1000                                              2                                                 1000                                              3                                                 1.4695433376109464-4.13044052196436E-8i           1.4695433376109464                                323.19999999999993                                2.8568728673084E7
1000                                              2                                                 1000                                              3                                                 1.4694981951680623-5.853241668709257E-10i         1.4694981951680623                                323.19999999999993                                2.8567851079229236E7
1000                                              2                                                 1000                                              3                                                 1.4698905358293728-1.8469103562617447E-9i         1.4698905358293728                                323.19999999999993                                2.8575478396922786E7
1000                                              2                                                 1000                                              3                                                 1.473442636844343                                 1.473442636844343                                 323.19999999999993                                2.864453318933268E7
1000                                              2                                                 1000                                              3                                                 1.4735155822799633                                1.4735155822799633                                323.19999999999993                                2.864595128861893E7
1000                                              2                                                 1000                                              4                                                 1.467815526338943-4.4215746212835956E-8i          1.467815526338943                                 327.6                                             2.8151883237920985E7
1000                                              2                                                 1000                                              4                                                 1.4677580282577303-5.891118067668192E-10i         1.4677580282577303                                327.6                                             2.8150780456788305E7
1000                                              2                                                 1000                                              4                                                 1.4681677082901843-2.053429590491431E-9i          1.4681677082901843                                327.6                                             2.8158637891344346E7
1000                                              2                                                 1000                                              4                                                 1.4718084105215847                                1.4718084105215847                                327.6                                             2.822846452983077E7
1000                                              2                                                 1000                                              4                                                 1.4718844112608647                                1.4718844112608647                                327.6                                             2.8229922181626797E7
1000                                              2                                                 1000                                              5                                                 1.4664100418601305-4.723066132189584E-8i          1.4664100418601305                                331.99999999999994                                2.7752186835289683E7
1000                                              2                                                 1000                                              5                                                 1.4663397643852187-6.045995838879544E-10i         1.4663397643852187                                331.99999999999994                                2.7750856816019226E7
1000                                              2                                                 1000                                              5                                                 1.466767181912774-2.2761605619643874E-9i          1.466767181912774                                 331.99999999999994                                2.775894580255286E7
1000                                              2                                                 1000                                              5                                                 1.4704967893993353                                1.4704967893993353                                331.99999999999994                                2.78295295825562E7
1000                                              2                                                 1000                                              5                                                 1.4705759123259607                                1.4705759123259607                                331.99999999999994                                2.783102700427317E7
1000                                              2                                                 1000                                              6                                                 1.4652610834562523-5.0362038905826864E-8i         1.4652610834562523                                336.4                                             2.736773754683224E7
1000                                              2                                                 1000                                              6                                                 1.4651775868915782-6.264985795719332E-10i         1.4651775868915782                                336.4                                             2.7366178021302037E7
1000                                              2                                                 1000                                              6                                                 1.4656231565370956-2.5163800756013938E-9i         1.4656231565370956                                336.4                                             2.737450024677778E7
1000                                              2                                                 1000                                              6                                                 1.4694420419099168                                1.4694420419099168                                336.4                                             2.744582832187978E7
1000                                              2                                                 1000                                              6                                                 1.4695243568466536                                1.4695243568466536                                336.4                                             2.744736577729318E7
1000                                              2                                                 1000                                              7                                                 1.4643154402818317-5.3619551868809124E-8i         1.4643154402818317                                340.8                                             2.6996963789480664E7
1000                                              2                                                 1000                                              7                                                 1.464218268710558-6.52464837930966E-10i           1.464218268710558                                 340.8                                             2.6995172278362993E7
1000                                              2                                                 1000                                              7                                                 1.464682420857823-2.7754481851622825E-9i          1.464682420857823                                 340.8                                             2.7003729654982686E7
1000                                              2                                                 1000                                              7                                                 1.4685910118298875                                1.4685910118298875                                340.8                                             2.7075790691859007E7
1000                                              2                                                 1000                                              7                                                 1.4686765912431436                                1.4686765912431436                                340.8                                             2.7077368483267363E7
1000                                              2                                                 1000                                              8                                                 1.4634187746836689-6.813802419336105E-10i         1.4634187746836689                                345.19999999999993                                2.663653343958048E7
1000                                              2                                                 1000                                              8                                                 1.4635300927021964-5.701159202315762E-8i          1.4635300927021964                                345.19999999999993                                2.663855960336506E7
1000                                              2                                                 1000                                              8                                                 1.463901954420111-3.054805850249425E-9i           1.463901954420111                                 345.19999999999993                                2.6645328074055396E7
1000                                              2                                                 1000                                              8                                                 1.4679007225579062                                1.4679007225579062                                345.19999999999993                                2.671811197095636E7
1000                                              2                                                 1000                                              8                                                 1.467989641308678                                 1.467989641308678                                 345.19999999999993                                2.6719730432684E7
1000                                              2                                                 1000                                              9                                                 1.4627443297471425-7.127430946745513E-10i         1.4627443297471425                                349.6                                             2.628916956758437E7
1000                                              2                                                 1000                                              9                                                 1.4628702801858584-6.054594221076224E-8i          1.4628702801858584                                349.6                                             2.629143321159459E7
1000                                              2                                                 1000                                              9                                                 1.4632469957913943-3.3559752368082737E-9i         1.4632469957913943                                349.6                                             2.6298203732068527E7
1000                                              2                                                 1000                                              9                                                 1.4673364471820705                                1.4673364471820705                                349.6                                             2.6371701389083177E7
1000                                              2                                                 1000                                              9                                                 1.4674287823153669                                1.4674287823153669                                349.6                                             2.637336088208336E7
1000                                              2                                                 1000                                              10                                                1.4621668597814805-7.461433068838765E-10i         1.4621668597814805                                354                                               2.595216194922009E7
1000                                              2                                                 1000                                              10                                                1.4623079420994414-6.423005195597016E-8i          1.4623079420994414                                354                                               2.5954666034946967E7
1000                                              2                                                 1000                                              10                                                1.4626894834872521-3.6805591976181E-9i            1.4626894834872521                                354                                               2.596143805540452E7
1000                                              2                                                 1000                                              10                                                1.466870150978808                                 1.466870150978808                                 354                                               2.6035641186921887E7
1000                                              2                                                 1000                                              10                                                1.4669659815449865                                1.4669659815449865                                354                                               2.6037342094281748E7
1000                                              2                                                 1000                                              11                                                1.4616637311427982-7.817654289961522E-10i         1.4616637311427982                                358.3999999999999                                 2.5624732364826236E7
1000                                              2                                                 1000                                              11                                                1.4618204572762175-6.807116601040226E-8i          1.4618204572762175                                358.3999999999999                                 2.562747996342766E7
1000                                              2                                                 1000                                              11                                                1.462206795602978-4.030241564999173E-9i           1.462206795602978                                 358.3999999999999                                 2.5634252941380516E7
1000                                              2                                                 1000                                              11                                                1.4664792323495819                                1.4664792323495819                                358.3999999999999                                 2.5709153922943335E7
1000                                              2                                                 1000                                              11                                                1.4665786392522073                                1.4665786392522073                                358.3999999999999                                 2.5710896646129742E7
1000                                              2                                                 1000                                              12                                                1.4612167300600747-8.187462283724013E-10i         1.4612167300600747                                362.8                                             2.530621689338054E7
1000                                              2                                                 1000                                              12                                                1.4613896234855954-7.207640895823776E-8i          1.4613896234855954                                362.8                                             2.5309211164138366E7
1000                                              2                                                 1000                                              12                                                1.4617807293119465-4.406788512533128E-9i          1.4617807293119465                                362.8                                             2.5315984566513453E7
1000                                              2                                                 1000                                              12                                                1.4661455034038409                                1.4661455034038409                                362.8                                             2.539157630974209E7
1000                                              2                                                 1000                                              12                                                1.4662485692697946                                1.4662485692697946                                362.8                                             2.539336126546048E7
1000                                              2                                                 1000                                              13                                                1.460811235047621-8.582841089504597E-10i          1.460811235047621                                 367.2                                             2.4996044903633106E7
1000                                              2                                                 1000                                              13                                                1.461000829928936-7.625280308357608E-8i           1.461000829928936                                 367.2                                             2.4999289075127102E7
1000                                              2                                                 1000                                              13                                                1.4613966733718-4.812049416566702E-9i             1.4613966733718                                   367.2                                             2.5006062380421616E7
1000                                              2                                                 1000                                              13                                                1.4658543633666514                                1.4658543633666514                                367.2                                             2.508233823085629E7
1000                                              2                                                 1000                                              13                                                1.4659611724348924                                1.4659611724348924                                367.2                                             2.5084165848416872E7
1000                                              2                                                 1000                                              14                                                1.4604355449306219-8.991744280061447E-10i         1.4604355449306219                                371.6                                             2.469372216897442E7
1000                                              2                                                 1000                                              14                                                1.4606423853469697-8.06073233144018E-8i           1.4606423853469697                                371.6                                             2.469721952275517E7
1000                                              2                                                 1000                                              14                                                1.4610429362317419-5.247958502921532E-9i          1.4610429362317419                                371.6                                             2.4703992223061893E7
1000                                              2                                                 1000                                              14                                                1.4655941274353685                                1.4655941274353685                                371.6                                             2.4780945876723874E7
1000                                              2                                                 1000                                              14                                                1.4657047654613327                                1.4657047654613327                                371.6                                             2.478281659582816E7
1000                                              2                                                 1000                                              15                                                1.4600803325537552-9.431791745349934E-10i         1.4600803325537552                                376                                               2.439881726809478E7
1000                                              2                                                 1000                                              15                                                1.4603049718036565-8.514690417077821E-8i          1.4603049718036565                                376                                               2.4402571124569237E7
1000                                              2                                                 1000                                              15                                                1.460710199810653-5.716535969241086E-9i           1.460710199810653                                 376                                               2.4409342727387372E7
1000                                              2                                                 1000                                              15                                                1.4653554811824123                                1.4653554811824123                                376                                               2.448696816266065E7
1000                                              2                                                 1000                                              15                                                1.4654700353556724                                1.4654700353556724                                376                                               2.448888243153912E7
1000                                              2                                                 1000                                              16                                                1.4597382001879888-9.91085101807731E-10i          1.4597382001879888                                380.3999999999999                                 2.4110950609226987E7
1000                                              2                                                 1000                                              16                                                1.4599812001496635-8.987846427897002E-8i          1.4599812001496635                                380.3999999999999                                 2.411496431529649E7
1000                                              2                                                 1000                                              16                                                1.460391074951738-6.219889858342041E-9i           1.460391074951738                                 380.3999999999999                                 2.412173434509191E7
1000                                              2                                                 1000                                              16                                                1.465131036530945                                 1.465131036530945                                 380.3999999999999                                 2.420002576715045E7