% Model:              HY_Ge-backup.mph
% Version:            COMSOL 6.2.0.415
% Date:               Jul 31 2024, 15:36
% Table:              Table 2 - All_Compacted
% height_substrate (nm)                           ratio                                             height_waveguide (nm)                             daddy                                             Effective mode index                              real(ewfd.neff) (1)                               Wavelength in free space (nm)                     Propagation constant (rad/m)
749.9999999999999                                 2                                                 1499.9999999999998                                1                                                 1.4747010905089082-5.45920101751512E-16i          1.4747010905089082                                314.4                                             2.947143837266948E7
749.9999999999999                                 2                                                 1499.9999999999998                                1                                                 1.4766166390145217                                1.4766166390145217                                314.4                                             2.9509720008247282E7
749.9999999999999                                 2                                                 1499.9999999999998                                1                                                 1.4766294021158912                                1.4766294021158912                                314.4                                             2.9509975074821707E7
749.9999999999999                                 2                                                 1499.9999999999998                                1                                                 1.4791510753017072                                1.4791510753017072                                314.4                                             2.9560369921865687E7
749.9999999999999                                 2                                                 1499.9999999999998                                1                                                 1.47919596295904                                  1.47919596295904                                  314.4                                             2.9561266987606872E7
749.9999999999999                                 2                                                 1499.9999999999998                                2                                                 1.4720638858590038+6.385959485346346E-16i         1.4720638858590038                                318.8                                             2.901270445062415E7
749.9999999999999                                 2                                                 1499.9999999999998                                2                                                 1.474032448709748                                 1.474032448709748                                 318.8                                             2.905150258481504E7
749.9999999999999                                 2                                                 1499.9999999999998                                2                                                 1.474045692769523                                 1.474045692769523                                 318.8                                             2.905176361016568E7
749.9999999999999                                 2                                                 1499.9999999999998                                2                                                 1.476640008714019                                 1.476640008714019                                 318.8                                             2.9102894625926785E7
749.9999999999999                                 2                                                 1499.9999999999998                                2                                                 1.4766868312636507                                1.4766868312636507                                318.8                                             2.9103817445110884E7
749.9999999999999                                 2                                                 1499.9999999999998                                3                                                 1.4699308455266311-6.175886698725465E-15i         1.4699308455266311                                323.19999999999993                                2.8576262039551344E7
749.9999999999999                                 2                                                 1499.9999999999998                                3                                                 1.4719525447560833                                1.4719525447560833                                323.19999999999993                                2.8615564981673963E7
749.9999999999999                                 2                                                 1499.9999999999998                                3                                                 1.4719662774368694                                1.4719662774368694                                323.19999999999993                                2.8615831952522177E7
749.9999999999999                                 2                                                 1499.9999999999998                                3                                                 1.4746335100001369                                1.4746335100001369                                323.19999999999993                                2.8667684416793074E7
749.9999999999999                                 2                                                 1499.9999999999998                                3                                                 1.4746823062522925                                1.4746823062522925                                323.19999999999993                                2.866863304270455E7
749.9999999999999                                 2                                                 1499.9999999999998                                4                                                 1.4682012818043966-1.1302445167851274E-14i        1.4682012818043966                                327.6                                             2.8159281812623985E7
749.9999999999999                                 2                                                 1499.9999999999998                                4                                                 1.4702763112838033                                1.4702763112838033                                327.6                                             2.8199079720856503E7
749.9999999999999                                 2                                                 1499.9999999999998                                4                                                 1.4702905405690307                                1.4702905405690307                                327.6                                             2.8199352630611915E7
749.9999999999999                                 2                                                 1499.9999999999998                                4                                                 1.4730310637127093                                1.4730310637127093                                327.6                                             2.8251914336199053E7
749.9999999999999                                 2                                                 1499.9999999999998                                4                                                 1.4730818748244776                                1.4730818748244776                                327.6                                             2.8252888864986915E7
749.9999999999999                                 2                                                 1499.9999999999998                                5                                                 1.4667937961784416                                1.4667937961784416                                331.99999999999994                                2.7759449484369136E7
749.9999999999999                                 2                                                 1499.9999999999998                                5                                                 1.4689224098211378                                1.4689224098211378                                331.99999999999994                                2.7799734044503026E7
749.9999999999999                                 2                                                 1499.9999999999998                                5                                                 1.4689371439315968                                1.4689371439315968                                331.99999999999994                                2.780001289132938E7
749.9999999999999                                 2                                                 1499.9999999999998                                5                                                 1.4717514159217207                                1.4717514159217207                                331.99999999999994                                2.7853273711867794E7
749.9999999999999                                 2                                                 1499.9999999999998                                5                                                 1.471804285116448                                 1.471804285116448                                 331.99999999999994                                2.7854274274962712E7
749.9999999999999                                 2                                                 1499.9999999999998                                6                                                 1.465642563004159                                 1.465642563004159                                 336.4                                             2.737486271535304E7
749.9999999999999                                 2                                                 1499.9999999999998                                6                                                 1.4678250647562252                                1.4678250647562252                                336.4                                             2.7415626873918664E7
749.9999999999999                                 2                                                 1499.9999999999998                                6                                                 1.467840312083918                                 1.467840312083918                                 336.4                                             2.741591165924962E7
749.9999999999999                                 2                                                 1499.9999999999998                                6                                                 1.470728862041521                                 1.470728862041521                                 336.4                                             2.746986318913269E7
749.9999999999999                                 2                                                 1499.9999999999998                                6                                                 1.4707838343752921                                1.4707838343752921                                336.4                                             2.7470889947039504E7
749.9999999999999                                 2                                                 1499.9999999999998                                7                                                 1.46469434723164                                  1.46469434723164                                  340.8                                             2.700394953648719E7
749.9999999999999                                 2                                                 1499.9999999999998                                7                                                 1.466931082600702                                 1.466931082600702                                 340.8                                             2.70451872794653E7
749.9999999999999                                 2                                                 1499.9999999999998                                7                                                 1.4669468516559563                                1.4669468516559563                                340.8                                             2.704547800686049E7
749.9999999999999                                 2                                                 1499.9999999999998                                7                                                 1.4699102681391187                                1.4699102681391187                                340.8                                             2.7100113261866536E7
749.9999999999999                                 2                                                 1499.9999999999998                                7                                                 1.469967390305723                                 1.469967390305723                                 340.8                                             2.7101166399067014E7
749.9999999999999                                 2                                                 1499.9999999999998                                8                                                 1.4639061063791747                                1.4639061063791747                                345.19999999999993                                2.6645403646269143E7
749.9999999999999                                 2                                                 1499.9999999999998                                8                                                 1.466197455278264                                 1.466197455278264                                 345.19999999999993                                2.6687109815841503E7
749.9999999999999                                 2                                                 1499.9999999999998                                8                                                 1.4662137546470049                                1.4662137546470049                                345.19999999999993                                2.6687406490100455E7
749.9999999999999                                 2                                                 1499.9999999999998                                8                                                 1.4692526759768954                                1.4692526759768954                                345.19999999999993                                2.6742719658842176E7
749.9999999999999                                 2                                                 1499.9999999999998                                8                                                 1.4693119961442858                                1.4693119961442858                                345.19999999999993                                2.6743799379595846E7
749.9999999999999                                 2                                                 1499.9999999999998                                9                                                 1.4632430586254697                                1.4632430586254697                                349.6                                             2.629813297136175E7
749.9999999999999                                 2                                                 1499.9999999999998                                9                                                 1.4655894293355614                                1.4655894293355614                                349.6                                             2.6340303114298947E7
749.9999999999999                                 2                                                 1499.9999999999998                                9                                                 1.4656062676444108                                1.4656062676444108                                349.6                                             2.6340605740771376E7
749.9999999999999                                 2                                                 1499.9999999999998                                9                                                 1.4687213737202403                                1.4687213737202403                                349.6                                             2.6396591978545852E7
749.9999999999999                                 2                                                 1499.9999999999998                                9                                                 1.4687829413928808                                1.4687829413928808                                349.6                                             2.639769850342037E7
749.9999999999999                                 2                                                 1499.9999999999998                                10                                                1.4626771236237508+3.685070618596189E-15i         1.4626771236237508                                354                                               2.5961218678814832E7
749.9999999999999                                 2                                                 1499.9999999999998                                10                                                1.4650789477043642                                1.4650789477043642                                354                                               2.6003848921113532E7
749.9999999999999                                 2                                                 1499.9999999999998                                10                                                1.46509633359177                                  1.46509633359177                                  354                                               2.6004157505159575E7
749.9999999999999                                 2                                                 1499.9999999999998                                10                                                1.4682883389715504                                1.4682883389715504                                354                                               2.6060812763076738E7
749.9999999999999                                 2                                                 1499.9999999999998                                10                                                1.4683522048740647                                1.4683522048740647                                354                                               2.606194632607196E7
749.9999999999999                                 2                                                 1499.9999999999998                                11                                                1.4621856620063924+3.59095190567558E-15i          1.4621856620063924                                358.3999999999999                                 2.5633882443881758E7
749.9999999999999                                 2                                                 1499.9999999999998                                11                                                1.4646433900075164                                1.4646433900075164                                358.3999999999999                                 2.5676969387145445E7
749.9999999999999                                 2                                                 1499.9999999999998                                11                                                1.4646613320995365                                1.4646613320995365                                358.3999999999999                                 2.5677283933710627E7
749.9999999999999                                 2                                                 1499.9999999999998                                11                                                1.4679309801538136                                1.4679309801538136                                358.3999999999999                                 2.573460481712101E7
749.9999999999999                                 2                                                 1499.9999999999998                                11                                                1.467997196132196                                 1.467997196132196                                 358.3999999999999                                 2.5735765663277466E7
749.9999999999999                                 2                                                 1499.9999999999998                                12                                                1.4617504547532207+4.90706928401375E-15i          1.4617504547532207                                362.8                                             2.531546025377209E7
749.9999999999999                                 2                                                 1499.9999999999998                                12                                                1.4642645526037215                                1.4642645526037215                                362.8                                             2.5359000889590938E7
749.9999999999999                                 2                                                 1499.9999999999998                                12                                                1.4642830594934713                                1.4642830594934713                                362.8                                             2.5359321402870312E7
749.9999999999999                                 2                                                 1499.9999999999998                                12                                                1.4676311174671737                                1.4676311174671737                                362.8                                             2.541730505410502E7
749.9999999999999                                 2                                                 1499.9999999999998                                12                                                1.46769973640464                                  1.46769973640464                                  362.8                                             2.5418493437510982E7
749.9999999999999                                 2                                                 1499.9999999999998                                13                                                1.461356875570909+7.361710558125245E-15i          1.461356875570909                                 367.2                                             2.500538139742103E7
749.9999999999999                                 2                                                 1499.9999999999998                                13                                                1.4639278215371343                                1.4639278215371343                                367.2                                             2.504937303663818E7
749.9999999999999                                 2                                                 1499.9999999999998                                13                                                1.4639469017670923                                1.4639469017670923                                367.2                                             2.504969951980956E7
749.9999999999999                                 2                                                 1499.9999999999998                                13                                                1.4673741566088239                                1.4673741566088239                                367.2                                             2.510834352107734E7
749.9999999999999                                 2                                                 1499.9999999999998                                13                                                1.4674452323538725                                1.4674452323538725                                367.2                                             2.5109559703204207E7
749.9999999999999                                 2                                                 1499.9999999999998                                14                                                1.4609932188801054+6.239143749019441E-15i         1.4609932188801054                                371.6                                             2.4703151579000227E7
749.9999999999999                                 2                                                 1499.9999999999998                                14                                                1.4636215010048397                                1.4636215010048397                                371.6                                             2.4747591793287776E7
749.9999999999999                                 2                                                 1499.9999999999998                                14                                                1.4636411630514083                                1.4636411630514083                                371.6                                             2.4747924248298835E7
749.9999999999999                                 2                                                 1499.9999999999998                                14                                                1.4671484178906138                                1.4671484178906138                                371.6                                             2.480722654128654E7
749.9999999999999                                 2                                                 1499.9999999999998                                14                                                1.4672220051952556                                1.4672220051952556                                371.6                                             2.480847078959472E7
749.9999999999999                                 2                                                 1499.9999999999998                                15                                                1.4606501534832217-9.575746616113019E-16i         1.4606501534832217                                376                                               2.440833931727496E7
749.9999999999999                                 2                                                 1499.9999999999998                                15                                                1.463336267429341                                 1.463336267429341                                 376                                               2.4453225890891097E7
749.9999999999999                                 2                                                 1499.9999999999998                                15                                                1.463356519689207                                 1.463356519689207                                 376                                               2.445356431828904E7
749.9999999999999                                 2                                                 1499.9999999999998                                15                                                1.4669445908604213                                1.4669445908604213                                376                                               2.4513523137608424E7
749.9999999999999                                 2                                                 1499.9999999999998                                15                                                1.4670207453270034                                1.4670207453270034                                376                                               2.4514795724378385E7
749.9999999999999                                 2                                                 1499.9999999999998                                16                                                1.4603202779190994-3.555172942976174E-15i         1.4603202779190994                                380.3999999999999                                 2.41205649684482E7
749.9999999999999                                 2                                                 1499.9999999999998                                16                                                1.4630647251541173                                1.4630647251541173                                380.3999999999999                                 2.4165895858415063E7
749.9999999999999                                 2                                                 1499.9999999999998                                16                                                1.4630855759320653                                1.4630855759320653                                380.3999999999999                                 2.4166240257210135E7
749.9999999999999                                 2                                                 1499.9999999999998                                16                                                1.4667552904610142                                1.4667552904610142                                380.3999999999999                                 2.4226854075322215E7