% Model:              HY_Ge-backup.mph
% Version:            COMSOL 6.2.0.415
% Date:               Jul 31 2024, 12:03
% Table:              Table 1 - All_Compacted
% height_substrate (nm)                           ratio                                             height_waveguide (nm)                             daddy                                             Effective mode index                              real(ewfd.neff) (1)                               Wavelength in free space (nm)                     Propagation constant (rad/m)
500                                               1                                                 500                                               1                                                 1.456393824682371-2.598684528618452E-7i           1.456393824682371                                 314.4                                             2.9105573411931794E7
500                                               1                                                 500                                               1                                                 1.4570272581079264-2.8076971398334602E-8i         1.4570272581079264                                314.4                                             2.9118232380101405E7
500                                               1                                                 500                                               1                                                 1.4569285083201584-5.319209567457494E-8i          1.4569285083201584                                314.4                                             2.9116258896591257E7
500                                               1                                                 500                                               1                                                 1.4595152935401188                                1.4595152935401188                                314.4                                             2.9167954987198394E7
500                                               1                                                 500                                               1                                                 1.4609443170289322-3.844440046862623E-16i         1.4609443170289322                                314.4                                             2.9196513573039766E7
500                                               1                                                 500                                               2                                                 1.4533423143250002-2.7796058731402735E-7i         1.4533423143250002                                318.8                                             2.864372357487207E7
500                                               1                                                 500                                               2                                                 1.4539934730287498-3.105195038428648E-8i          1.4539934730287498                                318.8                                             2.865655717211185E7
500                                               1                                                 500                                               2                                                 1.4538939270279572-5.800975268429933E-8i          1.4538939270279572                                318.8                                             2.865459523368786E7
500                                               1                                                 500                                               2                                                 1.4564973629919975                                1.4564973629919975                                318.8                                             2.87059059946585E7
500                                               1                                                 500                                               2                                                 1.457983180237452-4.689981397104885E-16i          1.457983180237452                                 318.8                                             2.8735189762179814E7
500                                               1                                                 500                                               3                                                 1.4507944759617792-2.966598530090125E-7i          1.4507944759617792                                323.19999999999993                                2.8204240517018434E7
500                                               1                                                 500                                               3                                                 1.4514635883464455-3.4187464325254765E-8i         1.4514635883464455                                323.19999999999993                                2.82172484288507E7
500                                               1                                                 500                                               3                                                 1.4513631845713129-6.304391752775875E-8i          1.4513631845713129                                323.19999999999993                                2.8215296524380714E7
500                                               1                                                 500                                               3                                                 1.4539820103525578                                1.4539820103525578                                323.19999999999993                                2.826620793425318E7
500                                               1                                                 500                                               3                                                 1.4555256813817847-5.328013843365703E-16i         1.4555256813817847                                323.19999999999993                                2.829621774591765E7
500                                               1                                                 500                                               4                                                 1.448649324296457-3.160127475511713E-7i           1.448649324296457                                 327.6                                             2.7784286171169512E7
500                                               1                                                 500                                               4                                                 1.4493366313423957-3.749281541051094E-8i          1.4493366313423957                                327.6                                             2.7797468337019827E7
500                                               1                                                 500                                               4                                                 1.4492353153979507-6.83086326019195E-8i           1.4492353153979507                                327.6                                             2.7795525153706275E7
500                                               1                                                 500                                               4                                                 1.4518682534174485                                1.4518682534174485                                327.6                                             2.7846023436608665E7
500                                               1                                                 500                                               4                                                 1.4534708890463541-7.28448410744347E-16i          1.4534708890463541                                327.6                                             2.7876761094228636E7
500                                               1                                                 500                                               5                                                 1.446825238230086-3.3606498350016065E-7i          1.446825238230086                                 331.99999999999994                                2.7381539394288797E7
500                                               1                                                 500                                               5                                                 1.4475309926940854-4.097783253663342E-8i          1.4475309926940854                                331.99999999999994                                2.7394895978863128E7
500                                               1                                                 500                                               5                                                 1.4474287160540984-7.381834330728715E-8i          1.4474287160540984                                331.99999999999994                                2.739296036717146E7
500                                               1                                                 500                                               5                                                 1.4500744696913117                                1.4500744696913117                                331.99999999999994                                2.7443031934580363E7
500                                               1                                                 500                                               5                                                 1.4517372230677548-9.07580948886313E-16i          1.4517372230677548                                331.99999999999994                                2.7474499969472922E7
500                                               1                                                 500                                               6                                                 1.4452562282001968-3.568614571939853E-7i          1.4452562282001968                                336.4                                             2.6994092443927657E7
500                                               1                                                 500                                               6                                                 1.4459806937198425-4.465270556814965E-8i          1.4459806937198425                                336.4                                             2.7007623808697563E7
500                                               1                                                 500                                               6                                                 1.445877412585259-7.958772395383087E-8i           1.445877412585259                                 336.4                                             2.7005694752492674E7
500                                               1                                                 500                                               6                                                 1.4485346650069921                                1.4485346650069921                                336.4                                             2.7055326171558373E7
500                                               1                                                 500                                               6                                                 1.4502587248762695-8.158203949853472E-16i         1.4502587248762695                                336.4                                             2.7087527680593275E7
500                                               1                                                 500                                               7                                                 1.4438889412607867-3.784461038514983E-7i          1.4438889412607867                                340.8                                             2.662036907549549E7
500                                               1                                                 500                                               7                                                 1.4446323914122776-4.852786246175655E-8i          1.4446323914122776                                340.8                                             2.6634075751165874E7
500                                               1                                                 500                                               7                                                 1.444528065727276-8.563155928691162E-8i           1.444528065727276                                 340.8                                             2.6632152342682417E7
500                                               1                                                 500                                               7                                                 1.4471954795368909-2.8703031986109066E-16i        1.4471954795368909                                340.8                                             2.6681330321722142E7
500                                               1                                                 500                                               7                                                 1.44898206484101-1.1542516620021553E-15i          1.44898206484101                                  340.8                                             2.6714268838543933E7
500                                               1                                                 500                                               8                                                 1.442680253239325-4.008619967071256E-7i           1.442680253239325                                 345.19999999999993                                2.625905958896713E7
500                                               1                                                 500                                               8                                                 1.4434429705859628-5.261388290079555E-8i          1.4434429705859628                                345.19999999999993                                2.6272942249528907E7
500                                               1                                                 500                                               8                                                 1.4433375632023953-9.196466948207322E-8i          1.4433375632023953                                345.19999999999993                                2.627102366863754E7
500                                               1                                                 500                                               8                                                 1.4460137806323423                                1.4460137806323423                                345.19999999999993                                2.6319735053442467E7
500                                               1                                                 500                                               8                                                 1.4478641361455087-1.3094260284874379E-15i        1.4478641361455087                                345.19999999999993                                2.63534144467605E7
500                                               1                                                 500                                               9                                                 1.4415953291752377-4.241513760628637E-7i          1.4415953291752377                                349.6                                             2.590906919671788E7
500                                               1                                                 500                                               9                                                 1.442271080310185-9.860186550500653E-8i           1.442271080310185                                 349.6                                             2.5921214132651553E7
500                                               1                                                 500                                               9                                                 1.4423776043343524-5.6921435244026937E-8i         1.4423776043343524                                349.6                                             2.5923128635464795E7
500                                               1                                                 500                                               9                                                 1.4449547237649905                                1.4449547237649905                                349.6                                             2.5969445909324728E7
500                                               1                                                 500                                               9                                                 1.4468701165393296-1.6616539865978184E-15i        1.4468701165393296                                349.6                                             2.6003870302165702E7
500                                               1                                                 500                                               10                                                1.4406060581496212-4.483557267468561E-7i          1.4406060581496212                                354                                               2.556947688700452E7
500                                               1                                                 500                                               10                                                1.4413005149125355-1.0555792795407714E-7i         1.4413005149125355                                354                                               2.558180287720004E7
500                                               1                                                 500                                               10                                                1.4414081888967627-6.146123522553178E-8i          1.4414081888967627                                354                                               2.558371399470191E7
500                                               1                                                 500                                               10                                                1.4439901877297923-2.1189831453656821E-16i        1.4439901877297923                                354                                               2.5629542178687353E7
500                                               1                                                 500                                               10                                                1.4459719041761538-1.8758596402757926E-15i        1.4459719041761538                                354                                               2.566471588393813E7
500                                               1                                                 500                                               11                                                1.43968978809457-4.735158358653061E-7i            1.43968978809457                                  358.3999999999999                                 2.5239502576596804E7
500                                               1                                                 500                                               11                                                1.440403222394462-1.1284759670455065E-7i          1.440403222394462                                 358.3999999999999                                 2.5252009942419123E7
500                                               1                                                 500                                               11                                                1.4405120785170185-6.624401851630331E-8i          1.4405120785170185                                358.3999999999999                                 2.525391832185507E7
500                                               1                                                 500                                               11                                                1.443097509733216-4.345354062580299E-16i          1.443097509733216                                 358.3999999999999                                 2.5299244056872748E7
500                                               1                                                 500                                               11                                                1.4451468532017095-2.208429394690096E-15i         1.4451468532017095                                358.3999999999999                                 2.5335171525540724E7
500                                               1                                                 500                                               12                                                1.4388283014478684-4.996720636909305E-7i          1.4388283014478684                                362.8                                             2.4918480824728243E7
500                                               1                                                 500                                               12                                                1.4395609914624874-1.2048557779214803E-7i         1.4395609914624874                                362.8                                             2.4931169984415594E7
500                                               1                                                 500                                               12                                                1.4396710611547312-7.128052278820159E-8i          1.4396710611547312                                362.8                                             2.4933076236546442E7
500                                               1                                                 500                                               12                                                1.4422584612551734-5.221615389332512E-16i         1.4422584612551734                                362.8                                             2.497788636415089E7
500                                               1                                                 500                                               12                                                1.444376750015493-2.5568497297704338E-15i         1.444376750015493                                 362.8                                             2.5014572143685628E7
500                                               1                                                 500                                               13                                                1.4380069845886256-5.268641544567656E-7i          1.4380069845886256                                367.2                                             2.460583975269301E7
500                                               1                                                 500                                               13                                                1.4387592137139151-1.284865488299107E-7i          1.4387592137139151                                367.2                                             2.461871119873781E7
500                                               1                                                 500                                               13                                                1.4388705279808798-7.658147885380342E-8i          1.4388705279808798                                367.2                                             2.4620615905074064E7
500                                               1                                                 500                                               13                                                1.4414584176393643-5.13627476092158E-16i          1.4414584176393643                                367.2                                             2.466489746901413E7
500                                               1                                                 500                                               13                                                1.4436469831814371-3.068674406727783E-15i         1.4436469831814371                                367.2                                             2.4702346169607136E7
500                                               1                                                 500                                               14                                                1.4372141534885043-5.551317343301137E-7i          1.4372141534885043                                371.6                                             2.4301084102447562E7
500                                               1                                                 500                                               14                                                1.4379862094105476-1.3686517268293153E-7i         1.4379862094105476                                371.6                                             2.431413838238756E7
500                                               1                                                 500                                               14                                                1.4380987990895504-8.21576056249203E-8i           1.4380987990895504                                371.6                                             2.431604210094744E7
500                                               1                                                 500                                               14                                                1.4406856838608162-9.472225371643614E-16i         1.4406856838608162                                371.6                                             2.4359782349564727E7
500                                               1                                                 500                                               14                                                1.4429458694519202-3.638511805632071E-15i         1.4429458694519202                                371.6                                             2.439799861678088E7
500                                               1                                                 500                                               15                                                1.436440505506613-5.845140717880855E-7i           1.436440505506613                                 376                                               2.4003781592650976E7
500                                               1                                                 500                                               15                                                1.437232679384899-1.4563611318792591E-7i          1.437232679384899                                 376                                               2.4017019292844538E7
500                                               1                                                 500                                               15                                                1.4373465753524886-8.801961084393241E-8i          1.4373465753524886                                376                                               2.401892256271184E7
500                                               1                                                 500                                               15                                                1.4399309464064158-1.1417629327776742E-15i        1.4399309464064158                                376                                               2.4062108951632943E7
500                                               1                                                 500                                               15                                                1.4422641058585572-4.239636649026742E-15i         1.4422641058585572                                376                                               2.4101097444156885E7
500                                               1                                                 500                                               16                                                1.435678673240428-6.150502905496729E-7i           1.435678673240428                                 380.3999999999999                                 2.3713551907295845E7
500                                               1                                                 500                                               16                                                1.4364912589913585-1.5481405309653238E-7i         1.4364912589913585                                380.3999999999999                                 2.3726973639291298E7
500                                               1                                                 500                                               16                                                1.4366064923273616-9.417819245211431E-8i          1.4366064923273616                                380.3999999999999                                 2.3728876984201055E7
500                                               1                                                 500                                               16                                                1.439186827188545-1.5650579128937907E-15i         1.439186827188545                                 380.3999999999999                                 2.3771497178962864E7