% Model:              HY_Ge-backup.mph
% Version:            COMSOL 6.2.0.415
% Date:               Jul 29 2024, 17:38
% Table:              Table 1 - Global Evaluation 1
% daddy                                           Effective mode index                              real(ewfd.neff) (1)                               Wavelength in free space (nm)                     Propagation constant (rad/m)
1                                                 1.4726442285291934                                1.4726442285291934                                314.4                                             2.943033263167126E7
1                                                 1.4743306347140168                                1.4743306347140168                                314.4                                             2.9464034929897785E7
1                                                 1.4744623047159016                                1.4744623047159016                                314.4                                             2.9466666313553125E7
1                                                 1.4783065457002091                                1.4783065457002091                                314.4                                             2.9543492262884736E7
1                                                 1.478343546036867                                 1.478343546036867                                 314.4                                             2.9544231702998128E7
2                                                 1.4699488144227562                                1.4699488144227562                                318.8                                             2.8971018798893075E7
2                                                 1.471679771826885                                 1.471679771826885                                 318.8                                             2.9005134000050467E7
2                                                 1.471817278287822                                 1.471817278287822                                 318.8                                             2.9007844095957E7
2                                                 1.4757715292896947                                1.4757715292896947                                318.8                                             2.9085777884526215E7
2                                                 1.4758100626562805                                1.4758100626562805                                318.8                                             2.908653733334293E7
3                                                 1.4677573439333498                                1.4677573439333498                                323.19999999999993                                2.853400797619727E7
3                                                 1.4695328778746464                                1.4695328778746464                                323.19999999999993                                2.8568525330072127E7
3                                                 1.4696763392079881                                1.4696763392079881                                323.19999999999993                                2.8571314297095027E7
3                                                 1.4737409912688744                                1.4737409912688744                                323.19999999999993                                2.8650333363022495E7
3                                                 1.4737810875422825                                1.4737810875422825                                323.19999999999993                                2.8651112856574323E7
4                                                 1.4659690528343745-1.9283593096435873E-15i        1.4659690528343745                                327.6                                             2.8116468905826967E7
4                                                 1.4677892472881817                                1.4677892472881817                                327.6                                             2.8151379220382433E7
4                                                 1.4679387895589708                                1.4679387895589708                                327.6                                             2.815424735774087E7
4                                                 1.4721143846897908                                1.4721143846897908                                327.6                                             2.8234332943744227E7
4                                                 1.472156075382071                                 1.472156075382071                                 327.6                                             2.8235132547972497E7
5                                                 1.4645024786036454-5.491446378344746E-15i         1.4645024786036454                                331.99999999999994                                2.7716085710513588E7
5                                                 1.466367466025937                                 1.466367466025937                                 331.99999999999994                                2.775138107668774E7
5                                                 1.4665232220791582                                1.4665232220791582                                331.99999999999994                                2.7754328800016362E7
5                                                 1.470810429281505                                 1.470810429281505                                 331.99999999999994                                2.783546529791582E7
5                                                 1.4708537473181784                                1.4708537473181784                                331.99999999999994                                2.7836285102890406E7
6                                                 1.4632917421542624-5.501148454893785E-15i         1.4632917421542624                                336.4                                             2.733095473965779E7
6                                                 1.4652016948862214                                1.4652016948862214                                336.4                                             2.7366628303697184E7
6                                                 1.465363803616355                                 1.465363803616355                                 336.4                                             2.7369656125312347E7
6                                                 1.4697633984789955                                1.4697633984789955                                336.4                                             2.7451830530182995E7
6                                                 1.4698083780173878                                1.4698083780173878                                336.4                                             2.745267064544682E7
7                                                 1.4622835639012024-5.4462257195952885E-15i        1.4622835639012024                                340.8                                             2.6959502944936134E7
7                                                 1.4642386869259956                                1.4642386869259956                                340.8                                             2.6995548720356055E7
7                                                 1.4644072926635265                                1.4644072926635265                                340.8                                             2.6998657232952185E7
7                                                 1.4689201400497558                                1.4689201400497558                                340.8                                             2.7081858689497665E7
7                                                 1.4689668163292817                                1.4689668163292817                                340.8                                             2.7082719240300808E7
8                                                 1.461434864327614-5.23089510199901E-15i           1.461434864327614                                 345.19999999999993                                2.6600423137147326E7
8                                                 1.4634353891763467                                1.4634353891763467                                345.19999999999993                                2.663683584959288E7
8                                                 1.4636106411710847                                1.4636106411710847                                345.19999999999993                                2.664002571274002E7
8                                                 1.4682376805575779                                1.4682376805575779                                345.19999999999993                                2.67242451388378E7
8                                                 1.4682860897756151                                1.4682860897756151                                345.19999999999993                                2.6725126263077382E7
9                                                 1.4607108308877126-4.920554031452995E-15i         1.4607108308877126                                349.6                                             2.6252622513363156E7
9                                                 1.4627570105177623                                1.4627570105177623                                349.6                                             2.6289397472709205E7
9                                                 1.4629390625025052                                1.4629390625025052                                349.6                                             2.6292669401644215E7
9                                                 1.4676812955803913                                1.4676812955803913                                349.6                                             2.6377899176238593E7
9                                                 1.46773147478877                                  1.46773147478877                                  349.6                                             2.6378801021961737E7
10                                                1.460083357818549-4.789112240853624E-15i          1.460083357818549                                 354                                               2.5915181641533732E7
10                                                1.4621754623121401                                1.4621754623121401                                354                                               2.595231463649197E7
10                                                1.4623644721330138                                1.4623644721330138                                354                                               2.5955669392789785E7
10                                                1.4672229523311084                                1.4672229523311084                                354                                               2.604190309729795E7
10                                                1.4672749393492484                                1.4672749393492484                                354                                               2.6042825820655413E7
11                                                1.4595297848013602                                1.4595297848013602                                358.3999999999999                                 2.5587321705510296E7
11                                                1.4616680977546033                                1.4616680977546033                                358.3999999999999                                 2.562480891681043E7
11                                                1.4618642270568023                                1.4618642270568023                                358.3999999999999                                 2.562824730059917E7
11                                                1.466840050693363                                 1.466840050693363                                 358.3999999999999                                 2.5715479504740786E7
11                                                1.466893884034897                                 1.466893884034897                                 358.3999999999999                                 2.5716423268302627E7
12                                                1.459031875620668-1.1806287201098438E-15i         1.459031875620668                                 362.8                                             2.526837828998471E7
12                                                1.4612166911131501                                1.4612166911131501                                362.8                                             2.530621621887463E7
12                                                1.4614201050731237                                1.4614201050731237                                362.8                                             2.530973906232717E7
12                                                1.4665144038852946                                1.4665144038852946                                362.8                                             2.539796514680075E7
12                                                1.466570122695775                                 1.466570122695775                                 362.8                                             2.5398930118166085E7
13                                                1.458574989947538-1.7156874998671151E-15i         1.458574989947538                                 367.2                                             2.495778035473307E7
13                                                1.4608066099996453                                1.4608066099996453                                367.2                                             2.4995965764108364E7
13                                                1.4610174770962108                                1.4610174770962108                                367.2                                             2.499957392598992E7
13                                                1.46623141193325                                  1.46623141193325                                  367.2                                             2.5088789935686752E7
13                                                1.4662890559369666                                1.4662890559369666                                367.2                                             2.508977628633272E7
14                                                1.4581474108260895-1.8503860692859878E-15i        1.4581474108260895                                371.6                                             2.4655033335318726E7
14                                                1.4604261432658525                                1.4604261432658525                                371.6                                             2.469356320126198E7
14                                                1.4606446350838889                                1.4606446350838889                                371.6                                             2.469725756235139E7
14                                                1.4659793905824978                                1.4659793905824978                                371.6                                             2.4787460084865533E7
14                                                1.4660390000367887                                1.4660390000367887                                371.6                                             2.4788467989191066E7
15                                                1.4577397979202273                                1.4577397979202273                                376                                               2.4359705531870507E7
15                                                1.460065954594112                                 1.460065954594112                                 376                                               2.4398577003773563E7
15                                                1.4602922456558582                                1.4602922456558582                                376                                               2.440235846301375E7
15                                                1.4657490257445127                                1.4657490257445127                                376                                               2.4493544528113604E7
15                                                1.4658106414003504                                1.4658106414003504                                376                                               2.449457416264406E7
16                                                1.4573447425141104                                1.4573447425141104                                380.3999999999999                                 2.407141712318632E7
16                                                1.4597186377867153                                1.4597186377867153                                380.3999999999999                                 2.4110627490950815E7
16                                                1.4599529054064566                                1.4599529054064566                                380.3999999999999                                 2.4114496962208193E7
16                                                1.4655329295093578                                1.4655329295093578                                380.3999999999999                                 2.4206663958677847E7
16                                                1.465596592577188                                 1.465596592577188                                 380.3999999999999                                 2.4207715501402352E7
17                                                1.456956404978558                                 1.456956404978558                                 384.8                                             2.3789831281087484E7
17                                                1.4593783544749699                                1.4593783544749699                                384.8                                             2.3829377948162813E7
17                                                1.4596207786334663                                1.4596207786334663                                384.8                                             2.3833336357494336E7
17                                                1.4653252784647544                                1.4653252784647544                                384.8                                             2.392648196436741E7
17                                                1.4653910305847275                                1.4653910305847275                                384.8                                             2.3927555594185837E7
18                                                1.456570219174273                                 1.456570219174273                                 389.2                                             2.351464696811701E7
18                                                1.4590405387264251                                1.4590405387264251                                389.2                                             2.3554527429355755E7
18                                                1.4592913019621394                                1.4592913019621394                                389.2                                             2.355857571270165E7
18                                                1.4651215188184832                                1.4651215188184832                                389.2                                             2.365269784242788E7
18                                                1.4651894020343847                                1.4651894020343847                                389.2                                             2.365379373868882E7
19                                                1.4561826512667104                                1.4561826512667104                                393.59999999999997                                2.3245593086912625E7
19                                                1.4587016560313169                                1.4587016560313169                                393.59999999999997                                2.3285804910402693E7
19                                                1.4589609433460522                                1.4589609433460522                                393.59999999999997                                2.328994401163817E7
19                                                1.4649181258203658                                1.4649181258203658                                393.59999999999997                                2.3385040763149336E7
19                                                1.464988182556718                                 1.464988182556718                                 393.59999999999997                                2.338615910526447E7
20                                                1.4557910028326897                                1.4557910028326897                                398                                               2.2982423716890927E7
20                                                1.4583590065535408                                1.4583590065535408                                398                                               2.3022964529070914E7
20                                                1.4586270053303512                                1.4586270053303512                                398                                               2.3027195398359347E7
20                                                1.4647124073813427                                1.4647124073813427                                398                                               2.312326501834696E7
20                                                1.4647846804231874                                1.4647846804231874                                398                                               2.3124405985469133E7
21                                                1.455393250066676                                 1.455393250066676                                 402.4                                             2.2724914227105577E7
21                                                1.4580105644584347                                1.4580105644584347                                402.4                                             2.2765781700591084E7
21                                                1.4582874643899433                                1.4582874643899433                                402.4                                             2.2770105292989727E7
21                                                1.464502343712365                                 1.464502343712365                                 402.4                                             2.2867146143995028E7
21                                                1.4645768761873017                                1.4645768761873017                                402.4                                             2.2868309914749082E7
22                                                1.4549879124427079                                1.4549879124427079                                406.79999999999995                                2.2472858096322317E7
22                                                1.4576548466771024                                1.4576548466771024                                406.79999999999995                                2.2514049939972177E7
22                                                1.457940839702877                                 1.457940839702877                                 406.79999999999995                                2.2518467214253157E7
22                                                1.46428645635246                                  1.46428645635246                                  406.79999999999995                                2.2616477748416513E7
22                                                1.4643632917146585                                1.4643632917146585                                406.79999999999995                                2.261766450067521E7
23                                                1.4545739454382813                                1.4545739454382813                                411.19999999999993                                2.2226064304922298E7
23                                                1.4572908057166007                                1.4572908057166007                                411.19999999999993                                2.2267578255754974E7
23                                                1.4575860859682994                                1.4575860859682994                                411.19999999999993                                2.227209017340812E7
23                                                1.464063701202302                                 1.464063701202302                                 411.19999999999993                                2.2371068910917476E7
23                                                1.4641428832182024                                1.4641428832182024                                411.19999999999993                                2.2372278821615186E7
24                                                1.4541506529330894                                1.4541506529330894                                415.59999999999997                                2.1984355189929713E7
24                                                1.4569177421313992                                1.4569177421313992                                415.59999999999997                                2.2026189006567042E7
24                                                1.457222505884479                                 1.457222505884479                                 415.59999999999997                                2.2030796530954704E7
24                                                1.463833381184649                                 1.463833381184649                                 415.59999999999997                                2.2130742042392682E7
24                                                1.463914953920076                                 1.463914953920076                                 415.59999999999997                                2.213197528737031E7
25                                                1.4537176157071885                                1.4537176157071885                                419.99999999999994                                2.1747564675713208E7
25                                                1.4565352330829333                                1.4565352330829333                                419.99999999999994                                2.1789716133085907E7
25                                                1.456849678714111                                 1.456849678714111                                 419.99999999999994                                2.17944202287281E7
25                                                1.463595074964464                                 1.463595074964464                                 419.99999999999994                                2.189533112065982E7
25                                                1.4636790827729924                                1.4636790827729924                                419.99999999999994                                2.189658787453657E7
26                                                1.453274633124003                                 1.453274633124003                                 424.3999999999999                                 2.1515536809947073E7
26                                                1.456143074074416                                 1.456143074074416                                 424.3999999999999                                 2.155800369504167E7
26                                                1.4564674020241188                                1.4564674020241188                                424.3999999999999                                 2.1562805327012174E7
26                                                1.463348578820054                                 1.463348578820054                                 424.3999999999999                                 2.166468023026459E7
26                                                1.4634350663324602                                1.4634350663324602                                424.3999999999999                                 2.166596066633246E7
27                                                1.452821675618028                                 1.452821675618028                                 428.79999999999995                                2.1288124548029896E7
27                                                1.4557412314822356                                1.4557412314822356                                428.79999999999995                                2.1330904656494167E7
27                                                1.4560756442212675                                1.4560756442212675                                428.79999999999995                                2.133580478990932E7
27                                                1.4630938592899474                                1.4630938592899474                                428.79999999999995                                2.143864235008226E7