% Model:              HY_Ge-backup.mph
% Version:            COMSOL 6.2.0.415
% Date:               Jul 29 2024, 18:43
% Table:              Table 1 - Global Evaluation 1
% daddy                                           Effective mode index                              real(ewfd.neff) (1)                               Wavelength in free space (nm)                     Propagation constant (rad/m)
1                                                 1.475907264137446-1.1426154002746163E-15i         1.475907264137446                                 314.4                                             2.9495543374007702E7
1                                                 1.4782516848120764                                1.4782516848120764                                314.4                                             2.95423958852567E7
1                                                 1.4782566099053562                                1.4782566099053562                                314.4                                             2.954249431169987E7
1                                                 1.4797440590133684                                1.4797440590133684                                314.4                                             2.957222051520063E7
1                                                 1.4797841055771728                                1.4797841055771728                                314.4                                             2.957302083320731E7
2                                                 1.4733037353036562-2.351202729275534E-15i         1.4733037353036562                                318.8                                             2.9037140472624637E7
2                                                 1.4757140658697312                                1.4757140658697312                                318.8                                             2.9084645345893797E7
2                                                 1.4757192041310054                                1.4757192041310054                                318.8                                             2.9084746615177806E7
2                                                 1.4772499120050353                                1.4772499120050353                                318.8                                             2.9114915125917107E7
2                                                 1.4772917009336162                                1.4772917009336162                                318.8                                             2.911573873815695E7
3                                                 1.4712044769363113+1.0496092725834132E-15i        1.4712044769363113                                323.19999999999993                                2.8601022132868376E7
3                                                 1.4736809128661597                                1.4736809128661597                                323.19999999999993                                2.8649165405914772E7
3                                                 1.4736862679101017                                1.4736862679101017                                323.19999999999993                                2.864926951090678E7
3                                                 1.4752603995279814                                1.4752603995279814                                323.19999999999993                                2.8679871493125305E7
3                                                 1.4753039652184257                                1.4753039652184257                                323.19999999999993                                2.8680718434047632E7
4                                                 1.4695088453047735-4.506649385638083E-16i         1.4695088453047735                                327.6                                             2.8184360151371766E7
4                                                 1.4720516713994356                                1.4720516713994356                                327.6                                             2.8233130137808558E7
4                                                 1.4720572470887587                                1.4720572470887587                                327.6                                             2.8233237076420378E7
4                                                 1.4736750285280265                                1.4736750285280265                                327.6                                             2.8264265222236726E7
4                                                 1.4737204075403003                                1.4737204075403003                                327.6                                             2.8265135566385604E7
5                                                 1.4681354785042748-2.1947680012295832E-15i        1.4681354785042748                                331.99999999999994                                2.7784841167129915E7
5                                                 1.4707450544211136                                1.4707450544211136                                331.99999999999994                                2.7834228061884888E7
5                                                 1.4707508548248254                                1.4707508548248254                                331.99999999999994                                2.783433783601554E7
5                                                 1.472412563830426                                 1.472412563830426                                 331.99999999999994                                2.786578610592156E7
5                                                 1.472459794622892                                 1.472459794622892                                 331.99999999999994                                2.78666799608049E7
6                                                 1.4670185812879255-6.663317330956621E-15i         1.4670185812879255                                336.4                                             2.740056360079588E7
6                                                 1.4696953292495343                                1.4696953292495343                                336.4                                             2.7450559152113963E7
6                                                 1.4697013586091696                                1.4697013586091696                                336.4                                             2.7450671766810376E7
6                                                 1.4714073165275108                                1.4714073165275108                                336.4                                             2.7482535172658138E7
6                                                 1.471456439236959                                 1.471456439236959                                 336.4                                             2.7483452672914542E7
7                                                 1.4661049437758107-1.1649020387239215E-14i        1.4661049437758107                                340.8                                             2.702995610773335E7
7                                                 1.4688493381588998                                1.4688493381588998                                340.8                                             2.708055334501308E7
7                                                 1.468855600861105                                 1.468855600861105                                 340.8                                             2.708066880780204E7
7                                                 1.4706061657663225                                1.4706061657663225                                340.8                                             2.7112943231780116E7
7                                                 1.4706572220244143                                1.4706572220244143                                340.8                                             2.7113884534393616E7
8                                                 1.4653515442608747-1.2814065557746833E-14i        1.4653515442608747                                345.19999999999993                                2.6671712899052277E7
8                                                 1.4681641027938077                                1.4681641027938077                                345.19999999999993                                2.6722905907307513E7
8                                                 1.4681706033479756                                1.4681706033479756                                345.19999999999993                                2.6723024227662195E7
8                                                 1.4699661641987782                                1.4699661641987782                                345.19999999999993                                2.6755706271566916E7
8                                                 1.4700191969783087                                1.4700191969783087                                345.19999999999993                                2.6756671551929444E7
9                                                 1.4647236180032643-1.2007532425907213E-14i        1.4647236180032643                                349.6                                             2.6324742321845062E7
9                                                 1.467604894332965                                 1.467604894332965                                 349.6                                             2.6376526054970633E7
9                                                 1.4676116373529096                                1.4676116373529096                                349.6                                             2.6376647243883222E7
9                                                 1.4694526090342994                                1.4694526090342994                                349.6                                             2.6409734103778653E7
9                                                 1.469507662519973                                 1.469507662519973                                 349.6                                             2.641072355244082E7
10                                                1.4641930986350642-1.0548108458777331E-14i        1.4641930986350642                                354                                               2.59881258876203E7
10                                                1.4671436760552286                                1.4671436760552286                                354                                               2.6040496013874743E7
10                                                1.4671506662440867                                1.4671506662440867                                354                                               2.604062008351296E7
10                                                1.4690374853650408                                1.4690374853650408                                354                                               2.607410944559794E7
10                                                1.469094604844406                                 1.469094604844406                                 354                                               2.607512326557958E7
11                                                1.463737358160902-1.0029978899391387E-14i         1.463737358160902                                 358.3999999999999                                 2.5661085553477798E7
11                                                1.4667578443224583                                1.4667578443224583                                358.3999999999999                                 2.571403832767096E7
11                                                1.4667650864601793                                1.4667650864601793                                358.3999999999999                                 2.571416529110099E7
11                                                1.468698207794814                                 1.468698207794814                                 358.3999999999999                                 2.574805524524935E7
11                                                1.468757439565819                                 1.468757439565819                                 358.3999999999999                                 2.5749093649806537E7
12                                                1.463338186742866-6.791826640491337E-15i          1.463338186742866                                 362.8                                             2.5342957536873188E7
12                                                1.466429209194123                                 1.466429209194123                                 362.8                                             2.5396489694673352E7
12                                                1.4664367081270515                                1.4664367081270515                                362.8                                             2.5396619565635856E7
12                                                1.4684166016022764                                1.4684166016022764                                362.8                                             2.5430908533643886E7
12                                                1.4684779928946596                                1.4684779928946596                                362.8                                             2.543197174441095E7
13                                                1.462980965429402-8.173546228204137E-16i          1.462980965429402                                 367.2                                             2.5033171314459216E7
13                                                1.4661431678561123                                1.4661431678561123                                367.2                                             2.5087279985008873E7
13                                                1.4661509284882712                                1.4661509284882712                                367.2                                             2.508741277773751E7
13                                                1.4681780766346721                                1.4681780766346721                                367.2                                             2.5122099453796722E7
13                                                1.4682416755428809                                1.4682416755428809                                367.2                                             2.5123187699236833E7
14                                                1.462653994435757-6.70174798616057E-16i           1.462653994435757                                 371.6                                             2.4731232743073948E7
14                                                1.465888033490967                                 1.465888033490967                                 371.6                                             2.4785915376751393E7
14                                                1.465896060776715                                 1.465896060776715                                 371.6                                             2.4786051105825316E7
14                                                1.4679709565715948                                1.4679709565715948                                371.6                                             2.482113440715017E7
14                                                1.4680368119972889                                1.4680368119972889                                371.6                                             2.482224792125975E7
15                                                1.4623479470579084+1.958218996558532E-15i         1.4623479470579084                                376                                               2.4436710465261918E7
15                                                1.4656544896892971                                1.4656544896892971                                376                                               2.449196477398294E7
15                                                1.4656627886271196                                1.4656627886271196                                376                                               2.4492103454206854E7
15                                                1.4677859336694001                                1.4677859336694001                                376                                               2.452758248009693E7
15                                                1.4678540952720505                                1.4678540952720505                                376                                               2.4528721501321092E7
16                                                1.4620554252340943+1.7245226927570114E-15i        1.4620554252340943                                380.3999999999999                                 2.414922493720574E7
16                                                1.4654351464305675                                1.4654351464305675                                380.3999999999999                                 2.4205048845102806E7
16                                                1.4654437220577987                                1.4654437220577987                                380.3999999999999                                 2.4205190491409376E7
16                                                1.4676156250236518                                1.4676156250236518                                380.3999999999999                                 2.4241064489315968E7
16                                                1.467686143177959                                 1.467686143177959                                 380.3999999999999                                 2.4242229259639397E7
17                                                1.4617705974829054+1.8259455588924293E-16i        1.4617705974829054                                384.8                                             2.3868439554500297E7
17                                                1.4652241783744029                                1.4652241783744029                                384.8                                             2.3924831157189E7
17                                                1.4652330357627124                                1.4652330357627124                                384.8                                             2.3924975784559287E7
17                                                1.467454211098586                                 1.467454211098586                                 384.8                                             2.396124412196841E7
17                                                1.467527136857642                                 1.467527136857642                                 384.8                                             2.396243488615192E7
18                                                1.4614889037032295-1.2755045901194857E-15i        1.4614889037032295                                389.2                                             2.359405345928605E7
18                                                1.4650170299587717                                1.4650170299587717                                389.2                                             2.365101099024879E7
18                                                1.4650261742102864                                1.4650261742102864                                389.2                                             2.3651158613647457E7
18                                                1.4672971410267608                                1.4672971410267608                                389.2                                             2.3687820754794333E7
18                                                1.4673725260900732                                1.4673725260900732                                389.2                                             2.3689037759733144E7
19                                                1.4612068143237458-1.8837781898613924E-15i        1.4612068143237458                                393.59999999999997                                2.332579569743305E7
19                                                1.464810174800997                                 1.464810174800997                                 393.59999999999997                                2.338331750029671E7
19                                                1.464819611044955                                 1.464819611044955                                 393.59999999999997                                2.338346813461935E7
19                                                1.4671408921805782                                1.4671408921805782                                393.59999999999997                                2.342052362121788E7
19                                                1.4672187888662673                                1.4672187888662673                                393.59999999999997                                2.342176711540233E7
20                                                1.460921633691367-2.3311106574421552E-15i         1.460921633691367                                 398                                               2.3063420461684406E7
20                                                1.4646009192986025                                1.4646009192986025                                398                                               2.312150496738365E7
20                                                1.4646106526884508                                1.4646106526884508                                398                                               2.312165862741401E7
20                                                1.4669827739174603                                1.4669827739174603                                398                                               2.315910706272296E7
20                                                1.4670632351379915                                1.4670632351379915                                398                                               2.316037729578487E7
21                                                1.4606313395149053+1.891613904296702E-16i         1.4606313395149053                                402.4                                             2.280670320985609E7
21                                                1.4643872422523443                                1.4643872422523443                                402.4                                             2.2865348917845834E7
21                                                1.4643972779631997                                1.4643972779631997                                402.4                                             2.2865505618221067E7
21                                                1.4668207673250673                                1.4668207673250673                                402.4                                             2.2903346653883573E7
21                                                1.4669038465659812                                1.4669038465659812                                402.4                                             2.290464387621419E7
22                                                1.4603344517278598-1.1779470985095898E-15i        1.4603344517278598                                406.79999999999995                                2.2555437489342783E7
22                                                1.4641676638806589                                1.4641676638806589                                406.79999999999995                                2.2614642952169158E7
22                                                1.464178007107088                                 1.464178007107088                                 406.79999999999995                                2.261480270735187E7
22                                                1.4666533943393614                                1.4666533943393614                                406.79999999999995                                2.265303603254214E7
22                                                1.4667391456406058                                1.4667391456406058                                406.79999999999995                                2.2654360494970974E7
23                                                1.4600299253818307-1.8315927219665898E-15i        1.4600299253818307                                411.19999999999993                                2.230943233268878E7
23                                                1.463941138841464                                 1.463941138841464                                 411.19999999999993                                2.2369196143347364E7
23                                                1.4639517947955232                                1.4639517947955232                                411.19999999999993                                2.2369358967603147E7
23                                                1.4664796108542522                                1.4664796108542522                                411.19999999999993                                2.2407984300092105E7
23                                                1.4665680887937507                                1.4665680887937507                                411.19999999999993                                2.240933625361707E7
24                                                1.4597170631882366-1.813585413560051E-15i         1.4597170631882366                                415.59999999999997                                2.206851011564885E7
24                                                1.4637069688823157                                1.4637069688823157                                415.59999999999997                                2.212883089725152E7
24                                                1.4637179427918106                                1.4637179427918106                                415.59999999999997                                2.2128996804630972E7
24                                                1.4662987194462318                                1.4662987194462318                                415.59999999999997                                2.2168013883447558E7
24                                                1.4663899791253276                                1.4663899791253276                                415.59999999999997                                2.216939357900779E7
25                                                1.4593954441376413-7.502757176297313E-16i         1.4593954441376413                                419.99999999999994                                2.1832504790405843E7
25                                                1.463464731551735                                 1.463464731551735                                 419.99999999999994                                2.189338118776519E7
25                                                1.46347602865867                                  1.46347602865867                                  419.99999999999994                                2.189355019208973E7
25                                                1.4661102981489655                                1.4661102981489655                                419.99999999999994                                2.193295877151015E7
25                                                1.4662043951795227                                1.4662043951795227                                419.99999999999994                                2.1934366459795497E7
26                                                1.459064865285429                                 1.459064865285429                                 424.3999999999999                                 2.160126042361774E7
26                                                1.4632142220627644                                1.4632142220627644                                424.3999999999999                                 2.1662691096420757E7
26                                                1.4632258476219524                                1.4632258476219524                                424.3999999999999                                 2.166286321127155E7
26                                                1.465914142370601                                 1.465914142370601                                 424.3999999999999                                 2.1702663055913582E7
26                                                1.466011132863532                                 1.466011132863532                                 424.3999999999999                                 2.1704098987205096E7
27                                                1.4587252943260594+2.348625556676414E-16i         1.4587252943260594                                428.79999999999995                                2.1374629982557632E7
27                                                1.462955405933216                                 1.462955405933216                                 428.79999999999995                                2.143661359985664E7
27                                                1.4629673652110224                                1.4629673652110224                                428.79999999999995                                2.143678883856606E7
27                                                1.465710217579645                                 1.465710217579645                                 428.79999999999995                                2.147697971940163E7