% Model:              HY_Ge-backup.mph
% Version:            COMSOL 6.2.0.415
% Date:               Jul 29 2024, 21:12
% Table:              Table 1 - Global Evaluation 1
% daddy                                           Effective mode index                              real(ewfd.neff) (1)                               Wavelength in free space (nm)                     Propagation constant (rad/m)
1                                                 1.478239584608583                                 1.478239584608583                                 314.4                                             2.954215406648824E7
1                                                 1.4793430067252717                                1.4793430067252717                                314.4                                             2.9564205611116726E7
1                                                 1.4793806813122545                                1.4793806813122545                                314.4                                             2.956495852591121E7
1                                                 1.4800167349480358                                1.4800167349480358                                314.4                                             2.9577669858159676E7
1                                                 1.4800650015330705                                1.4800650015330705                                314.4                                             2.9578634450710308E7
2                                                 1.4757013540448811                                1.4757013540448811                                318.8                                             2.908439481028801E7
2                                                 1.4768369445496443                                1.4768369445496443                                318.8                                             2.910677600719673E7
2                                                 1.4768762518441783                                1.4768762518441783                                318.8                                             2.9107550709252816E7
2                                                 1.4775304674393408                                1.4775304674393408                                318.8                                             2.9120444554344576E7
2                                                 1.47758083228475                                  1.47758083228475                                  318.8                                             2.9121437188148446E7
3                                                 1.4736675897488198                                1.4736675897488198                                323.19999999999993                                2.8648906397204638E7
3                                                 1.47483546630329                                  1.47483546630329                                  323.19999999999993                                2.8671610558119386E7
3                                                 1.4748764384470365                                1.4748764384470365                                323.19999999999993                                2.8672407079071093E7
3                                                 1.4755488636529501                                1.4755488636529501                                323.19999999999993                                2.868547939396581E7
3                                                 1.4756013683108222                                1.4756013683108222                                323.19999999999993                                2.8686500113318846E7
4                                                 1.472037735068168                                 1.472037735068168                                 327.6                                             2.8232862846746724E7
4                                                 1.4732380615948786                                1.4732380615948786                                327.6                                             2.825588444014247E7
4                                                 1.473280732734291                                 1.473280732734291                                 327.6                                             2.825670284879997E7
4                                                 1.4739714415173926                                1.4739714415173926                                327.6                                             2.826995025807202E7
4                                                 1.4740261301427762                                1.4740261301427762                                327.6                                             2.827099915540865E7
5                                                 1.4707305008762026+2.85370229332521E-16i          1.4707305008762026                                331.99999999999994                                2.783395263230792E7
5                                                 1.4719634805050565                                1.4719634805050565                                331.99999999999994                                2.785728708859728E7
5                                                 1.4720078865431647                                1.4720078865431647                                331.99999999999994                                2.785812748427858E7
5                                                 1.4727169751212337                                1.4727169751212337                                331.99999999999994                                2.7871547167818375E7
5                                                 1.472773894156165                                 1.472773894156165                                 331.99999999999994                                2.7872624375179756E7
6                                                 1.4696801525918348+2.721409460547008E-16i         1.4696801525918348                                336.4                                             2.7450275686737422E7
6                                                 1.4709460216101022                                1.4709460216101022                                336.4                                             2.7473919234943103E7
6                                                 1.47099220000044                                  1.47099220000044                                  336.4                                             2.747478174202895E7
6                                                 1.4717197833532283                                1.4717197833532283                                336.4                                             2.7488371340816073E7
6                                                 1.4717789812637745                                1.4717789812637745                                336.4                                             2.748947702286649E7
7                                                 1.4688335307653755+2.9850064805337163E-16i        1.4688335307653755                                340.8                                             2.7080261910791434E7
7                                                 1.4701325534487375                                1.4701325534487375                                340.8                                             2.7104211442005616E7
7                                                 1.4701805430236445                                1.4701805430236445                                340.8                                             2.710509620547966E7
7                                                 1.4709267519093034                                1.4709267519093034                                340.8                                             2.711885374276387E7
7                                                 1.4709882789659983                                1.4709882789659983                                340.8                                             2.7119988091057938E7
8                                                 1.4681476554836608+3.983467649138412E-16i         1.4681476554836608                                345.19999999999993                                2.6722606540281273E7
8                                                 1.4694801196926786                                1.4694801196926786                                345.19999999999993                                2.67468594937588E7
8                                                 1.4695299605196872                                1.4695299605196872                                345.19999999999993                                2.6747766675543156E7
8                                                 1.4702949389316418                                1.4702949389316418                                345.19999999999993                                2.676169049106547E7
8                                                 1.4703588470254767                                1.4703588470254767                                345.19999999999993                                2.6762853719327904E7
9                                                 1.4675877965211002+5.980442295023076E-16i         1.4675877965211002                                349.6                                             2.6376218764580775E7
9                                                 1.4689540099575595                                1.4689540099575595                                349.6                                             2.6400773032860044E7
9                                                 1.4690057432188133                                1.4690057432188133                                349.6                                             2.6401702808795407E7
9                                                 1.4697896462230344                                1.4697896462230344                                349.6                                             2.641579150398527E7
9                                                 1.469855988710692                                 1.469855988710692                                 349.6                                             2.641698384421322E7
10                                                1.467125915891545+2.304207708610087E-16i          1.467125915891545                                 354                                               2.6040180786757484E7
10                                                1.4685262029204813                                1.4685262029204813                                354                                               2.606503463671807E7
10                                                1.4685798708110587                                1.4685798708110587                                354                                               2.6065987194067057E7
10                                                1.4693828627099068                                1.4693828627099068                                354                                               2.608023958644171E7
10                                                1.4694516942830653                                1.4694516942830653                                354                                               2.608146128567657E7
11                                                1.4667394088166485-2.2053044634341814E-16i        1.4667394088166485                                358.3999999999999                                 2.571371513096551E7
11                                                1.468174107771296                                 1.468174107771296                                 358.3999999999999                                 2.573886713819784E7
11                                                1.4682297534130864                                1.4682297534130864                                358.3999999999999                                 2.573984267357425E7
11                                                1.4690520061882821                                1.4690520061882821                                358.3999999999999                                 2.5754257758830663E7
11                                                1.4691233827627692                                1.4691233827627692                                358.3999999999999                                 2.575550907647601E7
12                                                1.4664100843265124-2.1982832298513698E-16i        1.4664100843265124                                362.8                                             2.539615847888732E7
12                                                1.467879545224322                                 1.467879545224322                                 362.8                                             2.542160747316128E7
12                                                1.4679372125928343                                1.4679372125928343                                362.8                                             2.542260619080885E7
12                                                1.4687789045861863                                1.4687789045861863                                362.8                                             2.5437183111332007E7
12                                                1.4688528832076748                                1.4688528832076748                                362.8                                             2.5438464316920713E7
13                                                1.4661233386754118-1.9273951914831006E-16i        1.4661233386754118                                367.2                                             2.5086940686488092E7
13                                                1.4676279212832264                                1.4676279212832264                                367.2                                             2.5112685706463195E7
13                                                1.4676876551451468                                1.4676876551451468                                367.2                                             2.511370781682147E7
13                                                1.4685489699413465                                1.4685489699413465                                367.2                                             2.5128445835536994E7
13                                                1.4686256087048368                                1.4686256087048368                                367.2                                             2.5129757206867937E7
14                                                1.4658674841999793-2.967253394347196E-16i         1.4658674841999793                                371.6                                             2.4785567919799816E7
14                                                1.4674075563953486                                1.4674075563953486                                371.6                                             2.4811608175423983E7
14                                                1.467469402255037                                 1.467469402255037                                 371.6                                             2.481265389393018E7
14                                                1.4683505277359292                                1.4683505277359292                                371.6                                             2.482755237260436E7
14                                                1.4684298857167075                                1.4684298857167075                                371.6                                             2.4828894194183566E7
15                                                1.465633203719815                                 1.465633203719815                                 376                                               2.4491609072677888E7
15                                                1.467209140103254                                 1.467209140103254                                 376                                               2.451794391397968E7
15                                                1.4672731441567672                                1.4672731441567672                                376                                               2.451901346006647E7
15                                                1.4681742717009436                                1.4681742717009436                                376                                               2.453407184130441E7
15                                                1.4682564088952277                                1.4682564088952277                                376                                               2.4535444403039247E7
16                                                1.4654131065086438                                1.4654131065086438                                380.3999999999999                                 2.4204684804846227E7
16                                                1.4670252872284375                                1.4670252872284375                                380.3999999999999                                 2.4231313696042668E7
16                                                1.4670914963238988                                1.4670914963238988                                380.3999999999999                                 2.4232407292298727E7
16                                                1.468012820129373                                 1.468012820129373                                 380.3999999999999                                 2.4247625084616575E7
16                                                1.468097797403139                                 1.468097797403139                                 380.3999999999999                                 2.42490286807206E7
17                                                1.465201366577075                                 1.465201366577075                                 384.8                                             2.3924458676030472E7
17                                                1.4668501763340476                                1.4668501763340476                                384.8                                             2.3951381174053717E7
17                                                1.4669186379373498                                1.4669186379373498                                384.8                                             2.395249904551935E7
17                                                1.4678603544484659                                1.4678603544484659                                384.8                                             2.3967875810971983E7
17                                                1.4679482334931546                                1.4679482334931546                                384.8                                             2.396931073904474E7
18                                                1.4649934277632786                                1.4649934277632786                                389.2                                             2.365062996001256E7
18                                                1.4666792549679515                                1.4666792549679515                                389.2                                             2.3677845696710516E7
18                                                1.4667500171329766                                1.4667500171329766                                389.2                                             2.3678988070286028E7
18                                                1.4677123245555708                                1.4677123245555708                                389.2                                             2.36945234142188E7
18                                                1.4678031678496342                                1.4678031678496342                                389.2                                             2.369598997447192E7
19                                                1.4647857631274637                                1.4647857631274637                                393.59999999999997                                2.3382927807541456E7
19                                                1.466508999186295                                 1.466508999186295                                 393.59999999999997                                2.341043647493386E7
19                                                1.4665821105289996                                1.4665821105289996                                393.59999999999997                                2.3411603578882717E7
19                                                1.467565208420272                                 1.467565208420272                                 393.59999999999997                                2.3427297141448677E7
19                                                1.4676590791957205                                1.4676590791957205                                393.59999999999997                                2.342879563605506E7
20                                                1.464575678547024-1.7662449840346618E-16i         1.464575678547024                                 398                                               2.3121106494219176E7
20                                                1.4663367172579929                                1.4663367172579929                                398                                               2.314890783229489E7
20                                                1.4664122269337803                                1.4664122269337803                                398                                               2.315009989582619E7
20                                                1.4674163158554516                                1.4674163158554516                                398                                               2.3165951344971284E7
20                                                1.4675132780686575                                1.4675132780686575                                398                                               2.316748207751743E7
21                                                1.464361152334562                                 1.464361152334562                                 402.4                                             2.286494154262696E7
21                                                1.4661603893754387                                1.4661603893754387                                402.4                                             2.289303532925561E7
21                                                1.466238347059303                                 1.466238347059303                                 402.4                                             2.2894252582172703E7
21                                                1.46726362828441                                  1.46726362828441                                  402.4                                             2.2910261607841987E7
21                                                1.4673637465905025                                1.4673637465905025                                402.4                                             2.291182488286639E7
22                                                1.4641407042480545                                1.4641407042480545                                406.79999999999995                                2.2614226550085906E7
22                                                1.4659785367432707                                1.4659785367432707                                406.79999999999995                                2.264261259268915E7
22                                                1.466058992612356                                 1.466058992612356                                 406.79999999999995                                2.264385526509454E7
22                                                1.4671056678774883                                1.4671056678774883                                406.79999999999995                                2.2660021574453607E7
22                                                1.4672090076078874                                1.4672090076078874                                406.79999999999995                                2.266161769705855E7
23                                                1.463913288508926                                 1.463913288508926                                 411.19999999999993                                2.236877058692664E7
23                                                1.4657901146631354                                1.4657901146631354                                411.19999999999993                                2.2397448715614036E7
23                                                1.4658731193813632                                1.4658731193813632                                411.19999999999993                                2.239871703766169E7
23                                                1.4669413906774418                                1.4669413906774418                                411.19999999999993                                2.2415040351162672E7
23                                                1.4670480178200713                                1.4670480178200713                                411.19999999999993                                2.2416669626687758E7
24                                                1.4636782064489369                                1.4636782064489369                                415.59999999999997                                2.212839605678279E7
24                                                1.4655944252371826                                1.4655944252371826                                415.59999999999997                                2.215736611870687E7
24                                                1.4656800299416208                                1.4656800299416208                                415.59999999999997                                2.2158660320393953E7
24                                                1.466770099337394                                 1.466770099337394                                 415.59999999999997                                2.2175140368544403E7
24                                                1.466880080519162                                 1.466880080519162                                 415.59999999999997                                2.217680310229164E7
25                                                1.4634350352187138                                1.4634350352187138                                419.99999999999994                                2.1892936931662053E7
25                                                1.4653910461246822                                1.4653910461246822                                419.99999999999994                                2.1922198786388397E7
25                                                1.4654793024134436                                1.4654793024134436                                419.99999999999994                                2.1923519097380806E7
25                                                1.4665913719067407                                1.4665913719067407                                419.99999999999994                                2.1940155618097108E7
25                                                1.4667047743780064                                1.4667047743780064                                419.99999999999994                                2.1941852115100093E7
26                                                1.4631835696488957                                1.4631835696488957                                424.3999999999999                                 2.1662237291528087E7
26                                                1.4651797724440379                                1.4651797724440379                                424.3999999999999                                 2.169179080725049E7
26                                                1.465270732365503                                 1.465270732365503                                 424.3999999999999                                 2.1693137456737038E7
26                                                1.4664050037580627                                1.4664050037580627                                424.3999999999999                                 2.170993019318399E7
26                                                1.4665218953788264                                1.4665218953788264                                424.3999999999999                                 2.171166075801461E7
27                                                1.462923774888259                                 1.462923774888259                                 428.79999999999995                                2.143615011171083E7
27                                                1.4649605694456493                                1.4649605694456493                                428.79999999999995                                2.1465995162169643E7
27                                                1.4650542854888091                                1.4650542854888091                                428.79999999999995                                2.146736837874014E7
27                                                1.466210960281146                                 1.466210960281146                                 428.79999999999995                                2.1484317077575017E7