% Model:              HY_Ge-backup.mph
% Version:            COMSOL 6.2.0.415
% Date:               Jul 31 2024, 15:54
% Table:              Table 1 - All_Compacted
% height_substrate (nm)                           ratio                                             height_waveguide (nm)                             daddy                                             Effective mode index                              real(ewfd.neff) (1)                               Wavelength in free space (nm)                     Propagation constant (rad/m)
1000                                              1                                                 500                                               1                                                 1.4737144809900284-8.813051939961687E-8i          1.4737144809900284                                314.4                                             2.9451721291139748E7
1000                                              1                                                 500                                               1                                                 1.4740825971687432-3.300044487717726E-9i          1.4740825971687432                                314.4                                             2.945907797741658E7
1000                                              1                                                 500                                               1                                                 1.4741109164729822-1.1466960727678944E-7i         1.4741109164729822                                314.4                                             2.9459643929822125E7
1000                                              1                                                 500                                               1                                                 1.4742886737502434-5.291327506647043E-8i          1.4742886737502434                                314.4                                             2.9463196353208676E7
1000                                              1                                                 500                                               1                                                 1.4746539489456345-2.3056095996195173E-9i         1.4746539489456345                                314.4                                             2.947049626332559E7
1000                                              1                                                 500                                               2                                                 1.4710502330817294-9.349443060530707E-8i          1.4710502330817294                                318.8                                             2.8992726507597953E7
1000                                              1                                                 500                                               2                                                 1.4714310880743504-3.457015008174893E-9i          1.4714310880743504                                318.8                                             2.900023272621088E7
1000                                              1                                                 500                                               2                                                 1.4714693668125487-1.222867772441965E-7i          1.4714693668125487                                318.8                                             2.900098715659176E7
1000                                              1                                                 500                                               2                                                 1.4716525325552636-5.651491929319127E-8i          1.4716525325552636                                318.8                                             2.9004597144996423E7
1000                                              1                                                 500                                               2                                                 1.472026865021941-2.495376145521734E-9i           1.472026865021941                                 318.8                                             2.901197481204356E7
1000                                              1                                                 500                                               3                                                 1.4688897833138232-9.904570699216247E-8i          1.4688897833138232                                323.19999999999993                                2.8556023219008725E7
1000                                              1                                                 500                                               3                                                 1.4692834863048752-3.6175175494042142E-9i         1.4692834863048752                                323.19999999999993                                2.856367702113982E7
1000                                              1                                                 500                                               3                                                 1.469332124699683-1.3014725624970643E-7i          1.469332124699683                                 323.19999999999993                                2.856462257821786E7
1000                                              1                                                 500                                               3                                                 1.4695207305547442-6.023482000267091E-8i          1.4695207305547442                                323.19999999999993                                2.8568289179509223E7
1000                                              1                                                 500                                               3                                                 1.4699041476365962-2.6935664063696165E-9i         1.4699041476365962                                323.19999999999993                                2.857574301792263E7
1000                                              1                                                 500                                               4                                                 1.4671324410915116-1.0479516676105202E-7i         1.4671324410915116                                327.6                                             2.813878204381167E7
1000                                              1                                                 500                                               4                                                 1.467539118836991-3.781816949794717E-9i           1.467539118836991                                 327.6                                             2.814658189617783E7
1000                                              1                                                 500                                               4                                                 1.467598525175895-1.3827000728475888E-7i          1.467598525175895                                 327.6                                             2.814772127662885E7
1000                                              1                                                 500                                               4                                                 1.4677926106022618-6.408206949997289E-8i          1.4677926106022618                                327.6                                             2.8151443726870872E7
1000                                              1                                                 500                                               4                                                 1.4681851499024807-2.9007664217955856E-9i         1.4681851499024807                                327.6                                             2.8158972411741525E7
1000                                              1                                                 500                                               5                                                 1.4661871923489496-1.4667363494876277E-7i         1.4661871923489496                                331.99999999999994                                2.774796935102955E7
1000                                              1                                                 500                                               5                                                 1.465696808310478-1.1075358381407805E-7i          1.465696808310478                                 331.99999999999994                                2.773868870709762E7
1000                                              1                                                 500                                               5                                                 1.466116602783907-3.950159578746366E-9i           1.466116602783907                                 331.99999999999994                                2.7746633425373178E7
1000                                              1                                                 500                                               5                                                 1.4663868034748884-6.806563273462868E-8i          1.4663868034748884                                331.99999999999994                                2.7751747042877886E7
1000                                              1                                                 500                                               5                                                 1.4667885112215788-3.117574511283306E-9i          1.4667885112215788                                331.99999999999994                                2.7759349465202544E7
1000                                              1                                                 500                                               6                                                 1.4650323224837922-1.5537632677487018E-7i         1.4650323224837922                                336.4                                             2.7363464813238252E7
1000                                              1                                                 500                                               6                                                 1.4645170619227417-1.1693059207523326E-7i         1.4645170619227417                                336.4                                             2.735384092029366E7
1000                                              1                                                 500                                               6                                                 1.4649501282327726-4.122775851897715E-9i          1.4649501282327726                                336.4                                             2.7361929611959E7
1000                                              1                                                 500                                               6                                                 1.465237511131282-7.219430748649121E-8i           1.465237511131282                                 336.4                                             2.7367297269525733E7
1000                                              1                                                 500                                               6                                                 1.4656484408194543-3.3445969808594498E-9i         1.4656484408194543                                336.4                                             2.7374972499546565E7
1000                                              1                                                 500                                               7                                                 1.4635418991450593-3.315816218219351E-7i          1.4635418991450593                                340.8                                             2.6982702339054998E7
1000                                              1                                                 500                                               7                                                 1.4640807013929282-1.6439583754224373E-7i         1.4640807013929282                                340.8                                             2.6992636007973086E7
1000                                              1                                                 500                                               7                                                 1.4639864754476903-4.299883095422814E-9i          1.4639864754476903                                340.8                                             2.6990898804115478E7
1000                                              1                                                 500                                               7                                                 1.4642915242469459-7.647670871228336E-8i          1.4642915242469459                                340.8                                             2.6996522859671388E7
1000                                              1                                                 500                                               7                                                 1.4647117355075163-3.582445248217847E-9i          1.4647117355075163                                340.8                                             2.700427011676742E7
1000                                              1                                                 500                                               8                                                 1.4627360536498035-3.5026844438428714E-7i         1.4627360536498035                                345.19999999999993                                2.662410683828012E7
1000                                              1                                                 500                                               8                                                 1.463289306242144-1.7374950146206126E-7i          1.463289306242144                                 345.19999999999993                                2.6634176909425404E7
1000                                              1                                                 500                                               8                                                 1.463182616537752-4.4816876352949536E-9i          1.463182616537752                                 345.19999999999993                                2.663223498826937E7
1000                                              1                                                 500                                               8                                                 1.4635058241445984-8.092126727949758E-8i          1.4635058241445984                                345.19999999999993                                2.6638117877280105E7
1000                                              1                                                 500                                               8                                                 1.463935381800406-3.831734253144722E-9i           1.463935381800406                                 345.19999999999993                                2.6645936505181488E7
1000                                              1                                                 500                                               9                                                 1.4620555265358899-3.6962449632871994E-7i         1.4620555265358899                                349.6                                             2.627679005323517E7
1000                                              1                                                 500                                               9                                                 1.4626233735838505-1.8345426143496525E-7i         1.4626233735838505                                349.6                                             2.628699568317931E7
1000                                              1                                                 500                                               9                                                 1.4625037833889423-4.668386981710645E-9i          1.4625037833889423                                349.6                                             2.6284846348638322E7
1000                                              1                                                 500                                               9                                                 1.4628456509342205-8.553623894551626E-8i          1.4628456509342205                                349.6                                             2.6290990562418338E7
1000                                              1                                                 500                                               9                                                 1.4632846242105382-4.0930824729551384E-9i         1.4632846242105382                                349.6                                             2.629888000875702E7
1000                                              1                                                 500                                               10                                                1.4614722465049408-3.8970256328547004E-7i         1.4614722465049408                                354                                               2.5939833181046855E7
1000                                              1                                                 500                                               10                                                1.4620548401820082-1.9352670883917482E-7i         1.4620548401820082                                354                                               2.595017370091071E7
1000                                              1                                                 500                                               10                                                1.4619219084149173-4.860171742077149E-9i          1.4619219084149173                                354                                               2.594781428021624E7
1000                                              1                                                 500                                               10                                                1.4622829444289405-9.032971984288652E-8i          1.4622829444289405                                354                                               2.5954222348517574E7
1000                                              1                                                 500                                               10                                                1.462731406291885-4.367110299333383E-9i           1.462731406291885                                 354                                               2.5962182147918943E7
1000                                              1                                                 500                                               11                                                1.4609635833950503-4.1053473473357027E-7i         1.4609635833950503                                358.3999999999999                                 2.5612457928326502E7
1000                                              1                                                 500                                               11                                                1.46156108257005-2.039831283480463E-7i            1.46156108257005                                  358.3999999999999                                 2.562293281124338E7
1000                                              1                                                 500                                               11                                                1.4614143640609674-5.057227329220836E-9i          1.4614143640609674                                358.3999999999999                                 2.5620360658395838E7
1000                                              1                                                 500                                               11                                                1.46179508378028-9.530966438413762E-8i            1.46179508378028                                  358.3999999999999                                 2.5627035135367207E7
1000                                              1                                                 500                                               11                                                1.4622531103812968-4.654441471586074E-9i          1.4622531103812968                                358.3999999999999                                 2.563506489543921E7
1000                                              1                                                 500                                               12                                                1.4605113273179344-4.3215255090884756E-7i         1.4605113273179344                                362.8                                             2.5294000310841788E7
1000                                              1                                                 500                                               12                                                1.4611238964951483-2.1483954355163811E-7i         1.4611238964951483                                362.8                                             2.5304609146712516E7
1000                                              1                                                 500                                               12                                                1.4609629422074273-5.259735633394858E-9i          1.4609629422074273                                362.8                                             2.530182164501534E7
1000                                              1                                                 500                                               12                                                1.4613638669880444-1.0048390481313923E-7i         1.4613638669880444                                362.8                                             2.5308765097856734E7
1000                                              1                                                 500                                               12                                                1.4618315371965906-4.955702656310859E-9i          1.4618315371965906                                362.8                                             2.5316864487556137E7
1000                                              1                                                 500                                               13                                                1.4601008609644526-4.5458666736149156E-7i         1.4601008609644526                                367.2                                             2.4983889642189845E7
1000                                              1                                                 500                                               13                                                1.4607286693847674-2.2611176182879496E-7i         1.4607286693847674                                367.2                                             2.4994632116705768E7
1000                                              1                                                 500                                               13                                                1.4605530266054927-5.4678766551378844E-9i         1.4605530266054927                                367.2                                             2.4991626680621747E7
1000                                              1                                                 500                                               13                                                1.4609746834224917-1.0586017173890781E-7i         1.4609746834224917                                367.2                                             2.4998841680396367E7
1000                                              1                                                 500                                               13                                                1.4614520784321554-5.271524571005576E-9i          1.4614520784321554                                367.2                                             2.5007010420348547E7
1000                                              1                                                 500                                               14                                                1.459720487546591-4.77867628026043E-7i            1.459720487546591                                 371.6                                             2.4681631646775458E7
1000                                              1                                                 500                                               14                                                1.4603637084251357-2.3781541818531715E-7i         1.4603637084251357                                371.6                                             2.469250752399113E7
1000                                              1                                                 500                                               14                                                1.460172920932947-5.6818296116551265E-9i          1.460172920932947                                 371.6                                             2.468928160050428E7
1000                                              1                                                 500                                               14                                                1.4606158419498727-1.1144611259696154E-7i         1.4606158419498727                                371.6                                             2.469677071467486E7
1000                                              1                                                 500                                               14                                                1.4611030449457019-5.602542138231025E-9i          1.4611030449457019                                371.6                                             2.4705008569101684E7
1000                                              1                                                 500                                               15                                                1.459360884440742-5.020257849127846E-7i           1.459360884440742                                 376                                               2.4386794859017752E7
1000                                              1                                                 500                                               15                                                1.460019694318193-2.4996601519844797E-7i          1.460019694318193                                 376                                               2.439780396684282E7
1000                                              1                                                 500                                               15                                                1.4598133025327977-5.901775202418379E-9i          1.4598133025327977                                376                                               2.4394355036434527E7
1000                                              1                                                 500                                               15                                                1.4602780247292384-1.1724931006438364E-7i         1.4602780247292384                                376                                               2.4402120822808452E7
1000                                              1                                                 500                                               15                                                1.460775120606212-5.94939529686187E-9i            1.460775120606212                                 376                                               2.4410427592783082E7
1000                                              1                                                 500                                               16                                                1.45901465852681-5.270908990056488E-7i            1.45901465852681                                  380.3999999999999                                 2.409899964620214E7
1000                                              1                                                 500                                               16                                                1.4596892367208514-2.6257896002585875E-7i         1.4596892367208514                                380.3999999999999                                 2.4110141864386536E7
1000                                              1                                                 500                                               16                                                1.459466777837797-6.127896285130447E-9i           1.459466777837797                                 380.3999999999999                                 2.4106467441711828E7
1000                                              1                                                 500                                               16                                                1.459953842685436-1.2327729952377992E-7i          1.459953842685436                                 380.3999999999999                                 2.4114512443537086E7