% Model:              HY_Ge-backup.mph
% Version:            COMSOL 6.2.0.415
% Date:               Jul 31 2024, 15:55
% Table:              Table 2 - All_Compacted
% height_substrate (nm)                           ratio                                             height_waveguide (nm)                             daddy                                             Effective mode index                              real(ewfd.neff) (1)                               Wavelength in free space (nm)                     Propagation constant (rad/m)
1000                                              2                                                 500                                               1                                                 1.473734587503888-2.0135471204018743E-7i          1.473734587503888                                 314.4                                             2.9452123113507625E7
1000                                              2                                                 500                                               1                                                 1.4743110447161771-4.3751080042014156E-8i         1.4743110447161771                                314.4                                             2.9463643429940425E7
1000                                              2                                                 500                                               1                                                 1.4742284224672955-7.381884811269446E-8i          1.4742284224672955                                314.4                                             2.946199225023235E7
1000                                              2                                                 500                                               1                                                 1.4751489553557-2.421976012994688E-12i            1.4751489553557                                   314.4                                             2.9480388811044052E7
1000                                              2                                                 500                                               1                                                 1.4754798484275278-6.577878406384477E-12i         1.4754798484275278                                314.4                                             2.9487001605214395E7
1000                                              2                                                 500                                               2                                                 1.4710814438898898-2.1469185282949361E-7i         1.4710814438898898                                318.8                                             2.899334163711884E7
1000                                              2                                                 500                                               2                                                 1.4716754563920786-4.678941989836862E-8i          1.4716754563920786                                318.8                                             2.9005048947740022E7
1000                                              2                                                 500                                               2                                                 1.4715904656333463-7.884672407757757E-8i          1.4715904656333463                                318.8                                             2.900337387657781E7
1000                                              2                                                 500                                               2                                                 1.472527573789286-2.5772981897744273E-12i         1.472527573789286                                 318.8                                             2.9021843212200895E7
1000                                              2                                                 500                                               2                                                 1.4728724474098953-7.2722122003404755E-12i        1.4728724474098953                                318.8                                             2.902864027890681E7
1000                                              2                                                 500                                               3                                                 1.4689325635696995-2.2836646937805034E-7i         1.4689325635696995                                323.19999999999993                                2.855685489065216E7
1000                                              2                                                 500                                               3                                                 1.4695442108921868-4.993030107452137E-8i          1.4695442108921868                                323.19999999999993                                2.8568745650150392E7
1000                                              2                                                 500                                               3                                                 1.4694568350167652-8.404222083934601E-8i          1.4694568350167652                                323.19999999999993                                2.8567047015197884E7
1000                                              2                                                 500                                               3                                                 1.4704102849123903-2.737143118236169E-12i         1.4704102849123903                                323.19999999999993                                2.8585582604230445E7
1000                                              2                                                 500                                               3                                                 1.4707694123212423-8.013504300960347E-12i         1.4707694123212423                                323.19999999999993                                2.8592564238075443E7
1000                                              2                                                 500                                               4                                                 1.4671872629340654-2.424882395397052E-7i          1.4671872629340654                                327.6                                             2.8139833496179335E7
1000                                              2                                                 500                                               4                                                 1.4677268708182758-8.941820864247039E-8i          1.4677268708182758                                327.6                                             2.8150182874475148E7
1000                                              2                                                 500                                               4                                                 1.4678166515660351-5.318150064980635E-8i          1.4678166515660351                                327.6                                             2.815190481914911E7
1000                                              2                                                 500                                               4                                                 1.4686964462335252-2.9018889364799228E-12i        1.4686964462335252                                327.6                                             2.816877879023613E7
1000                                              2                                                 500                                               4                                                 1.4690701163948787-8.80552413961707E-12i          1.4690701163948787                                327.6                                             2.817594557554611E7
1000                                              2                                                 500                                               5                                                 1.4657641505774435-2.570899534549327E-7i          1.4657641505774435                                331.99999999999994                                2.7739963176803496E7
1000                                              2                                                 500                                               5                                                 1.4663192015184963-9.498740248540732E-8i          1.4663192015184963                                331.99999999999994                                2.7750467658482887E7
1000                                              2                                                 500                                               5                                                 1.4664114096152907-5.655071629284744E-8i          1.4664114096152907                                331.99999999999994                                2.775221272040753E7
1000                                              2                                                 500                                               5                                                 1.467304699503197-3.0720526621745036E-12i         1.467304699503197                                 331.99999999999994                                2.7769118461066406E7
1000                                              2                                                 500                                               5                                                 1.4676932150312099-9.652188178972654E-12i         1.4676932150312099                                331.99999999999994                                2.7776471217262853E7
1000                                              2                                                 500                                               6                                                 1.4645974095872072-2.722031051003536E-7i          1.4645974095872072                                336.4                                             2.7355341631544657E7
1000                                              2                                                 500                                               6                                                 1.4651680270815115-1.0076231000199488E-7i         1.4651680270815115                                336.4                                             2.7365999465837855E7
1000                                              2                                                 500                                               6                                                 1.465262687364273-6.004552689867636E-8i           1.465262687364273                                 336.4                                             2.736776750417858E7
1000                                              2                                                 500                                               6                                                 1.466169254641897-3.2480279333373172E-12i         1.466169254641897                                 336.4                                             2.7384700114757467E7
1000                                              2                                                 500                                               6                                                 1.4665729300941663-1.055769920975612E-11i         1.4665729300941663                                336.4                                             2.739223985218484E7
1000                                              2                                                 500                                               7                                                 1.4636338146020718-2.878590207382147E-7i          1.4636338146020718                                340.8                                             2.6984396945419442E7
1000                                              2                                                 500                                               7                                                 1.4642201364437644-1.0675521039644112E-7i         1.4642201364437644                                340.8                                             2.699520671296933E7
1000                                              2                                                 500                                               7                                                 1.4643172758050653-6.367337481321155E-8i          1.4643172758050653                                340.8                                             2.6996997630245373E7
1000                                              2                                                 500                                               7                                                 1.4652369078244427-3.4302120582630445E-12i        1.4652369078244427                                340.8                                             2.701395249641956E7
1000                                              2                                                 500                                               7                                                 1.4656560682918673-1.1526687203139257E-11i        1.4656560682918673                                340.8                                             2.7021680380487263E7
1000                                              2                                                 500                                               8                                                 1.462830333327474-3.0408548293866215E-7i          1.462830333327474                                 345.19999999999993                                2.662582287734589E7
1000                                              2                                                 500                                               8                                                 1.463432509405064-1.1297815421141143E-7i          1.463432509405064                                 345.19999999999993                                2.66367834332064E7
1000                                              2                                                 500                                               8                                                 1.4635321565357888-6.744156096827026E-8i          1.4635321565357888                                345.19999999999993                                2.6638597168396648E7
1000                                              2                                                 500                                               8                                                 1.4644646438605453-3.6190866940430865E-12i        1.4644646438605453                                345.19999999999993                                2.6655569910743237E7
1000                                              2                                                 500                                               8                                                 1.4648996237960312-1.2563751473197386E-11i        1.4648996237960312                                345.19999999999993                                2.6663487232700255E7
1000                                              2                                                 500                                               9                                                 1.4621521943263451-3.2091308828014594E-7i         1.4621521943263451                                349.6                                             2.6278527414907556E7
1000                                              2                                                 500                                               9                                                 1.4627703847352769-1.1944297658344636E-7i         1.4627703847352769                                349.6                                             2.628963784080698E7
1000                                              2                                                 500                                               9                                                 1.4628725699070593-7.135724998100439E-8i          1.4628725699070593                                349.6                                             2.6291474363604333E7
1000                                              2                                                 500                                               9                                                 1.4638177047039562-3.815126080792741E-12i         1.4638177047039562                                349.6                                             2.6308460796868544E7
1000                                              2                                                 500                                               9                                                 1.464268846944668-1.3673897990724376E-11i         1.464268846944668                                 349.6                                             2.6316568949895684E7
1000                                              2                                                 500                                               10                                                1.4615713276220172-3.3836991370433106E-7i         1.4615713276220172                                354                                               2.5941591782795537E7
1000                                              2                                                 500                                               10                                                1.4622057010619876-1.261613183955848E-7i          1.4622057010619876                                354                                               2.595285134742064E7
1000                                              2                                                 500                                               10                                                1.4623104559431184-7.542748078272255E-8i          1.4623104559431184                                354                                               2.595471065343752E7
1000                                              2                                                 500                                               10                                                1.4632680306713248-4.01871813846285E-12i          1.4632680306713248                                354                                               2.5971706753614902E7
1000                                              2                                                 500                                               10                                                1.4637356856180246-1.4862366771732486E-11i        1.4637356856180246                                354                                               2.5980007213190988E7
1000                                              2                                                 500                                               11                                                1.4610651040736835-3.5648391006284473E-7i         1.4610651040736835                                358.3999999999999                                 2.561423770856189E7
1000                                              2                                                 500                                               11                                                1.461715836481885-1.3314465214226562E-7i          1.461715836481885                                 358.3999999999999                                 2.562564583441601E7
1000                                              2                                                 500                                               11                                                1.4618231939813966-7.965918028637478E-8i          1.4618231939813966                                358.3999999999999                                 2.562752794117814E7
1000                                              2                                                 500                                               11                                                1.4627930003264-4.230216417654232E-12i            1.4627930003264                                   358.3999999999999                                 2.5644529818906195E7
1000                                              2                                                 500                                               11                                                1.4632775252506771-1.6134768404393418E-11i        1.4632775252506771                                358.3999999999999                                 2.565302412662154E7
1000                                              2                                                 500                                               12                                                1.4606153146589451-3.7528272471303344E-7i         1.4606153146589451                                362.8                                             2.5295801225211054E7
1000                                              2                                                 500                                               12                                                1.4612825880504956-1.404043095242329E-7i          1.4612825880504956                                362.8                                             2.53073574610701E7
1000                                              2                                                 500                                               12                                                1.4613925821859877-8.405917909935319E-8i          1.4613925821859877                                362.8                                             2.5309262404664367E7
1000                                              2                                                 500                                               12                                                1.4623744101941711-4.45018925840416E-12i          1.4623744101941711                                362.8                                             2.5326266283702943E7
1000                                              2                                                 500                                               12                                                1.4628761686511063-1.7496701288958987E-11i        1.4628761686511063                                362.8                                             2.5334956033880364E7
1000                                              2                                                 500                                               13                                                1.4602073428116151-3.9479159369154815E-7i         1.4602073428116151                                367.2                                             2.4985711660647288E7
1000                                              2                                                 500                                               13                                                1.4608913442873301-1.4795150932477723E-7i         1.4608913442873301                                367.2                                             2.4997415658529375E7
1000                                              2                                                 500                                               13                                                1.4610040100728103-8.863422681348082E-8i          1.4610040100728103                                367.2                                             2.4999343490795035E7
1000                                              2                                                 500                                               13                                                1.4619976474508873-4.678987568601864E-12i         1.4619976474508873                                367.2                                             2.5016345690616924E7
1000                                              2                                                 500                                               13                                                1.4625170087787258-1.8954352851877103E-11i        1.4625170087787258                                367.2                                             2.5025232519223113E7
1000                                              2                                                 500                                               14                                                1.459829492366751-4.1503949931899025E-7i          1.459829492366751                                 371.6                                             2.4683474750877827E7
1000                                              2                                                 500                                               14                                                1.46053041328706-1.557973841151711E-7i            1.46053041328706                                  371.6                                             2.4695326247185633E7
1000                                              2                                                 500                                               14                                                1.4606457866376437-9.339100771750144E-8i          1.4606457866376437                                371.6                                             2.469727703335686E7
1000                                              2                                                 500                                               14                                                1.461651018187814-4.917121090603026E-12i          1.461651018187814                                 371.6                                             2.471427395506392E7
1000                                              2                                                 500                                               14                                                1.4621883570793737-2.0514125192730484E-11i        1.4621883570793737                                371.6                                             2.472335953049025E7
1000                                              2                                                 500                                               15                                                1.4594724412413267-4.3604978748989126E-7i         1.4594724412413267                                376                                               2.4388659040002726E7
1000                                              2                                                 500                                               15                                                1.4601904765041964-1.6395300641669662E-7i         1.4601904765041964                                376                                               2.440065783950725E7
1000                                              2                                                 500                                               15                                                1.4603085941550442-9.833615574841832E-8i          1.4603085941550442                                376                                               2.4402631656231515E7
1000                                              2                                                 500                                               15                                                1.461325201321499-5.165213240820067E-12i          1.461325201321499                                 376                                               2.4419619771155566E7
1000                                              2                                                 500                                               15                                                1.461880897455737-2.2182725266300963E-11i         1.461880897455737                                 376                                               2.4428905786543597E7
1000                                              2                                                 500                                               16                                                1.4591287967745967-4.5785135012773994E-7i         1.4591287967745967                                380.3999999999999                                 2.410088490319867E7
1000                                              2                                                 500                                               16                                                1.4598641442158458-1.7242941164275345E-7i         1.4598641442158458                                380.3999999999999                                 2.4113030865970828E7
1000                                              2                                                 500                                               16                                                1.4599850436531165-1.0347626806398276E-7i         1.4599850436531165                                380.3999999999999                                 2.4115027799640402E7
1000                                              2                                                 500                                               16                                                1.4610128041600379-5.423540886482129E-12i         1.4610128041600379                                380.3999999999999                                 2.4132003640114605E7