% Model:              HY_Ge.mph
% Version:            COMSOL 6.2.0.415
% Date:               Jul 10 2024, 17:00
% Table:              Table 1 - 20240708NEWREDO
% daddy                                           Effective mode index                              Eigenvalue                                        real(ewfd.neff) (1)                               Frequency (Hz)
1                                                 1.531157541004463                                 -1.8729162682575863E7i                            1.531157541004463                                 5.836322998053212E14
1                                                 1.531873726268186                                 -1.8737923081134412E7i                            1.531873726268186                                 5.836322998053212E14
1                                                 1.5318978602613955                                -1.8738218288827218E7i                            1.5318978602613955                                5.836322998053212E14
1                                                 1.5323118715328068                                -1.8743282486499257E7i                            1.5323118715328068                                5.836322998053212E14
1                                                 1.5323418856058                                   -1.874364961949557E7i                             1.5323418856058                                   5.836322998053212E14
2                                                 1.5309196771987883                                -1.859352839351973E7i                             1.5309196771987883                                5.79495730670103E14
2                                                 1.5316460393951832                                -1.8602350303854935E7i                            1.5316460393951832                                5.79495730670103E14
2                                                 1.5316706597376717                                -1.860264932609884E7i                             1.5316706597376717                                5.79495730670103E14
2                                                 1.5320904511301574                                -1.8607747832109176E7i                            1.5320904511301574                                5.79495730670103E14
2                                                 1.5321210782444226                                -1.8608119808593106E7i                            1.5321210782444226                                5.79495730670103E14
3                                                 1.5306815692013833                                -1.8459800279417895E7i                            1.5306815692013833                                5.75417385796545E14
3                                                 1.5314181793464878                                -1.8468683692164227E7i                            1.5314181793464878                                5.75417385796545E14
3                                                 1.5314432921284746                                -1.8468986548714712E7i                            1.5314432921284746                                5.75417385796545E14
3                                                 1.5318689019101204                                -1.8474119341664094E7i                            1.5318689019101204                                5.75417385796545E14
3                                                 1.5319001499579399                                -1.847449618864094E7i                             1.5319001499579399                                5.75417385796545E14
4                                                 1.5304422177989034                                -1.8327926409837507E7i                            1.5304422177989034                                5.713960444726811E14
4                                                 1.5311891475719066                                -1.833687132376742E7i                             1.5311891475719066                                5.713960444726811E14
4                                                 1.5312147587237768                                -1.833717803205166E7i                             1.5312147587237768                                5.713960444726811E14
4                                                 1.531646225605253                                 -1.83423450962897E7i                              1.531646225605253                                 5.713960444726811E14
4                                                 1.5316781023365191                                -1.8342726838493384E7i                            1.5316781023365191                                5.713960444726811E14
5                                                 1.5302026242588023                                -1.81978800865941E7i                              1.5302026242588023                                5.67430519873817E14
5                                                 1.5309599447962385                                -1.8206886494052105E7i                            1.5309599447962385                                5.67430519873817E14
5                                                 1.5309860603381766                                -1.8207197072202377E7i                            1.5309860603381766                                5.67430519873817E14
5                                                 1.5314234226595604                                -1.8212398387997266E7i                            1.5314234226595604                                5.67430519873817E14
5                                                 1.531455935921873                                 -1.8212785050808717E7i                            1.531455935921873                                 5.67430519873817E14
6                                                 1.5299625247252229                                -1.806962040580621E7i                             1.5299625247252229                                5.635196578947368E14
6                                                 1.5307303073017708                                -1.807868830092665E7i                             1.5307303073017708                                5.635196578947368E14
6                                                 1.5307569332667248                                -1.8079002766851064E7i                            1.5307569332667248                                5.635196578947368E14
6                                                 1.5312002294303628                                -1.808423831561441E7i                             1.5312002294303628                                5.635196578947368E14
6                                                 1.5312333870980122                                -1.8084629924205E7i                               1.5312333870980122                                5.635196578947368E14
7                                                 1.5297221350683574                                -1.794311321057042E7i                             1.5297221350683574                                5.5966233602986925E14
7                                                 1.530500450839578                                 -1.795224258621089E7i                             1.530500450839578                                 5.5966233602986925E14
7                                                 1.5305275932952915                                -1.7952560957857948E7i                            1.5305275932952915                                5.5966233602986925E14
7                                                 1.530976861605161                                 -1.795783072022924E7i                             1.530976861605161                                 5.5966233602986925E14
7                                                 1.5310106715987803                                -1.7958227299797025E7i                            1.5310106715987803                                5.5966233602986925E14
8                                                 1.5294823664475496                                -1.7818333372905143E7i                            1.5294823664475496                                5.558574622991347E14
8                                                 1.5302712861331311                                -1.7827524216991033E7i                            1.5302712861331311                                5.558574622991347E14
8                                                 1.5302989511364389                                -1.7827846511816077E7i                            1.5302989511364389                                5.558574622991347E14
8                                                 1.5307542296304093                                -1.783315046572953E7i                             1.5307542296304093                                5.558574622991347E14
8                                                 1.5307886998674904                                -1.7833552040922046E7i                            1.5307886998674904                                5.558574622991347E14
9                                                 1.5292417865538772                                -1.76952293267042E7i                              1.5292417865538772                                5.521039742173112E14
9                                                 1.5300413815151377                                -1.7704481634829957E7i                            1.5300413815151377                                5.521039742173112E14
9                                                 1.53006957522718                                  -1.770480787114167E7i                             1.53006957522718                                  5.521039742173112E14
9                                                 1.5305309022642903                                -1.771014599869485E7i                             1.5305309022642903                                5.521039742173112E14
9                                                 1.5305660407866786                                -1.771055259509924E7i                             1.5305660407866786                                5.521039742173112E14
10                                                1.5290019678376119                                -1.7573785424937725E7i                            1.5290019678376119                                5.48400837804878E14
10                                                1.5298123087487496                                -1.7583099184888944E7i                            1.5298123087487496                                5.48400837804878E14
10                                                1.5298410372205362                                -1.75834293793618E7i                              1.5298410372205362                                5.48400837804878E14
10                                                1.5303084507865912                                -1.7588801658722676E7i                            1.5303084507865912                                5.48400837804878E14
10                                                1.5303442655300763                                -1.7589213300192274E7i                            1.5303442655300763                                5.48400837804878E14
11                                                1.5287618980306965                                -1.7453956927708868E7i                            1.5287618980306965                                5.447470466384009E14
11                                                1.5295830559692458                                -1.7463332132120196E7i                            1.5295830559692458                                5.447470466384009E14
11                                                1.5296123253873246                                -1.746366630264283E7i                             1.5296123253873246                                5.447470466384009E14
11                                                1.5300858636360564                                -1.746907271433299E7i                             1.5300858636360564                                5.447470466384009E14
11                                                1.530122362689908                                 -1.7469489425996624E7i                            1.530122362689908                                 5.447470466384009E14
12                                                1.5285225895298409                                -1.733572324228518E7i                             1.5285225895298409                                5.411416209386281E14
12                                                1.5293546350946836                                -1.734515987850887E7i                             1.5293546350946836                                5.411416209386281E14
12                                                1.5293844515960724                                -1.734549804205298E7i                             1.5293844515960724                                5.411416209386281E14
12                                                1.5298641524059373                                -1.735093856385873E7i                             1.5298641524059373                                5.411416209386281E14
12                                                1.529901343816651                                 -1.7351360369861167E7i                            1.529901343816651                                 5.411416209386281E14
13                                                1.5282834040316933                                -1.721904571921997E7i                             1.5282834040316933                                5.375836066945607E14
13                                                1.5291264081258098                                -1.722854377828401E7i                             1.5291264081258098                                5.375836066945607E14
13                                                1.529156777891047                                 -1.7228885951976877E7i                            1.529156777891047                                 5.375836066945607E14
13                                                1.5296426792878064                                -1.7234360563782357E7i                            1.5296426792878064                                5.375836066945607E14
13                                                1.5296805711613477                                -1.7234787488462146E7i                            1.5296805711613477                                5.375836066945607E14
14                                                1.5280449024670413                                -1.710390014232466E7i                             1.5280449024670413                                5.340720748218526E14
14                                                1.5288989356897147                                -1.7113459612033468E7i                            1.5288989356897147                                5.340720748218526E14
14                                                1.5289298649030034                                -1.7113805812707752E7i                            1.5289298649030034                                5.340720748218526E14
14                                                1.5294220047183273                                -1.7119314492618777E7i                            1.5294220047183273                                5.340720748218526E14
14                                                1.5294606051734114                                -1.711974655998024E7i                             1.5294606051734114                                5.340720748218526E14
15                                                1.5278071385117902                                -1.699025728301127E7i                             1.5278071385117902                                5.306061203539823E14
15                                                1.5286722714240137                                -1.6999878150980897E7i                            1.5286722714240137                                5.306061203539823E14
15                                                1.5287037662767065                                -1.700022839522106E7i                             1.5287037662767065                                5.306061203539823E14
15                                                1.5292021823030069                                -1.700577112133312E7i                             1.5292021823030069                                5.306061203539823E14
15                                                1.5292414994773955                                -1.7006208355125044E7i                            1.5292414994773955                                5.306061203539823E14
16                                                1.5275697336781076+4.590436139262303E-16i         5.071962644271822E-9-1.687808389156832E7i         1.5275697336781076                                5.271848616647128E14
16                                                1.528446037100947                                 -1.6887766148527905E7i                            1.528446037100947                                 5.271848616647128E14
16                                                1.5284781037372013                                -1.688812045207614E7i                             1.5284781037372013                                5.271848616647128E14
16                                                1.528982833925571                                 -1.68936972046617E7i                              1.528982833925571                                 5.271848616647128E14
16                                                1.5290228759243467                                -1.6894139627812423E7i                            1.5290228759243467                                5.271848616647128E14
17                                                1.5273335146116438+2.9179822074953235E-16i        3.203416936414572E-9-1.6767360800531456E7i        1.5273335146116438                                5.2380743972044256E14
17                                                1.5282210586368785                                -1.6777104429382062E7i                            1.5282210586368785                                5.2380743972044256E14
17                                                1.5282537034603547                                -1.6777462810526885E7i                            1.5282537034603547                                5.2380743972044256E14
17                                                1.5287647852121338                                -1.678307356420227E7i                             1.5287647852121338                                5.2380743972044256E14
17                                                1.5288055604070487                                -1.6783521202127002E7i                            1.5288055604070487                                5.2380743972044256E14
18                                                1.5270982278337937+7.641589653073538E-16i         8.335681220779027E-9-1.6658057548168879E7i        1.5270982278337937                                5.2047301736111106E14
18                                                1.5279970829493057                                -1.6667862536458928E7i                            1.5279970829493057                                5.2047301736111106E14
18                                                1.528030312101505                                 -1.6668225010279883E7i                            1.528030312101505                                 5.2047301736111106E14
18                                                1.5285477831453147                                -1.6673869743716262E7i                            1.5285477831453147                                5.2047301736111106E14
18                                                1.5285892996595394                                -1.6674322618633244E7i                            1.5285892996595394                                5.2047301736111106E14
19                                                1.526863297923956+5.411222076755701E-16i          5.8653900597856055E-9-1.6550140953860095E7i       1.526863297923956                                 5.171807786083957E14
19                                                1.5277735347683858                                -1.6560007291008413E7i                            1.5277735347683858                                5.171807786083957E14
19                                                1.5278073545739144                                -1.6560373874283608E7i                            1.5278073545739144                                5.171807786083957E14
19                                                1.5283312526378503                                -1.6566052566551201E7i                            1.5283312526378503                                5.171807786083957E14
19                                                1.528373518793534                                 -1.656651070241385E7i                             1.528373518793534                                 5.171807786083957E14
20                                                1.5266302365551578+7.437753994928251E-16i         8.011334849031333E-9-1.6443601151690504E7i        1.5266302365551578                                5.1392992799999994E14
20                                                1.5275519247794132                                -1.6453528816676404E7i                            1.5275519247794132                                5.1392992799999994E14
20                                                1.527586341650701                                 -1.6453899526813539E7i                            1.527586341650701                                 5.1392992799999994E14
20                                                1.5281167038319736                                -1.6459612150581863E7i                            1.5281167038319736                                5.1392992799999994E14
20                                                1.5281597280413446                                -1.646007557186216E7i                             1.5281597280413446                                5.1392992799999994E14
21                                                1.5263977288950936+6.560896037291435E-16i         7.022713046583017E-9-1.6338398267642148E7i        1.5263977288950936                                5.107196899488926E14
21                                                1.5273309391770644                                -1.6348387250831565E7i                            1.5273309391770644                                5.107196899488926E14
21                                                1.5273659592664681                                -1.6348762102128323E7i                            1.5273659592664681                                5.107196899488926E14
21                                                1.5279028233597418                                -1.6354508638044523E7i                            1.5279028233597418                                5.107196899488926E14
21                                                1.5279466137955025                                -1.6354977366191996E7i                            1.5279466137955025                                5.107196899488926E14
22                                                1.526165585659977                                 -1.6234505390759414E7i                            1.526165585659977                                 5.075493081264108E14
22                                                1.5271103885992539                                -1.6244555681864794E7i                            1.5271103885992539                                5.075493081264108E14
22                                                1.527146018254849                                 -1.624493469043455E7i                             1.527146018254849                                 5.075493081264108E14
22                                                1.527689421914272                                 -1.6250715118011449E7i                            1.527689421914272                                 5.075493081264108E14
22                                                1.5277339869583701                                -1.6251189176302008E7i                            1.5277339869583701                                5.075493081264108E14
23                                                1.5259353956275499                                -1.613191507152937E7i                             1.5259353956275499                                5.044180448681996E14
23                                                1.5268918607698005                                -1.614202664931168E7i                             1.5268918607698005                                5.044180448681996E14
23                                                1.526928106410632                                 -1.6142409831719847E7i                            1.526928106410632                                 5.044180448681996E14
23                                                1.527478086627709                                 -1.6148224123844095E7i                            1.527478086627709                                 5.044180448681996E14
23                                                1.5275234347341726                                -1.6148703535884881E7i                            1.5275234347341726                                5.044180448681996E14
24                                                1.525705955662305                                 -1.6030590708518028E7i                            1.525705955662305                                 5.013251806020067E14
24                                                1.5266741533150971                                -1.60407635601342E7i                              1.5266741533150971                                5.013251806020067E14
24                                                1.5267110213228672                                -1.6041150932249125E7i                            1.5267110213228672                                5.013251806020067E14
24                                                1.5272676155387397                                -1.6046999067030448E7i                            1.5272676155387397                                5.013251806020067E14
24                                                1.5273137551444613                                -1.604748385581431E7i                             1.5273137551444613                                5.013251806020067E14
25                                                1.5254782981331514                                -1.5930519937814187E7i                            1.5254782981331514                                4.982700132963989E14
25                                                1.5264582980133519                                -1.5940754044487284E7i                            1.5264582980133519                                4.982700132963989E14
25                                                1.5264957946973312                                -1.5941145621130798E7i                            1.5264957946973312                                4.982700132963989E14
25                                                1.5270590400220962                                -1.5947027573622048E7i                            1.5270590400220962                                4.982700132963989E14
25                                                1.527105979496077                                 -1.5947517761012478E7i                            1.527105979496077                                 4.982700132963989E14
26                                                1.5252510027021613                                -1.5831665236683616E7i                            1.5252510027021613                                4.952518579295153E14
26                                                1.5262428753074568                                -1.5841960588082604E7i                            1.5262428753074568                                4.952518579295153E14
26                                                1.5262810070829853                                -1.584235638490816E7i                             1.5262810070829853                                4.952518579295153E14
26                                                1.5268509410282074                                -1.5848272134782637E7i                            1.5268509410282074                                4.952518579295153E14
26                                                1.526898688867696                                 -1.5848767743577005E7i                            1.526898688867696                                 4.952518579295153E14
27                                                1.5250254370775942                                -1.5734018750937713E7i                            1.5250254370775942                                4.922700459770115E14
27                                                1.5260292519007155                                -1.5744375326549806E7i                            1.5260292519007155                                4.922700459770115E14
27                                                1.5260680252997698                                -1.5744775360131493E7i                            1.5260680252997698                                4.922700459770115E14
27                                                1.526644684724592                                 -1.575072488069847E7i                             1.526644684724592                                 4.922700459770115E14