% Model:              HY_Ge.mph
% Version:            COMSOL 6.2.0.415
% Date:               Jul 8 2024, 22:06
% Table:              Table 4 - 20240708NEWREDO
% daddy                                           Effective mode index                              Eigenvalue                                        real(ewfd.neff) (1)                               Frequency (Hz)
1                                                 1.4982806662443797                                -2.057699468454192E7i                             1.4982806662443797                                6.552840612021858E14
1                                                 1.4988662343204566                                -2.05850367233003E7i                              1.4988662343204566                                6.552840612021858E14
1                                                 1.498881022043569                                 -2.058523981402071E7i                             1.498881022043569                                 6.552840612021858E14
1                                                 1.499222069303739                                 -2.0589923667865854E7i                            1.499222069303739                                 6.552840612021858E14
1                                                 1.4992411237683214                                -2.0590185356897328E7i                            1.4992411237683214                                6.552840612021858E14
2                                                 1.4978439794898588                                -2.023920706317867E7i                             1.4978439794898588                                6.447149634408601E14
2                                                 1.4984487978941137                                -2.0247379506428402E7i                            1.4984487978941137                                6.447149634408601E14
2                                                 1.4984642514253494                                -2.0247588318042174E7i                            1.4984642514253494                                6.447149634408601E14
2                                                 1.4988163618490993                                -2.0252346113829292E7i                            1.4988163618490993                                6.447149634408601E14
2                                                 1.498836295340677                                 -2.025261545968177E7i                             1.498836295340677                                 6.447149634408601E14
3                                                 1.4973544848581266                                -1.991144063259267E7i                             1.4973544848581266                                6.344813925925925E14
3                                                 1.4979788889902015                                -1.991974380056811E7i                             1.4979788889902015                                6.344813925925925E14
3                                                 1.4979950215642377                                -1.9919958327450972E7i                            1.4979950215642377                                6.344813925925925E14
3                                                 1.4983583836007113                                -1.99247902237658E7i                              1.4983583836007113                                6.344813925925925E14
3                                                 1.498379216470139                                 -1.992506725398611E7i                             1.498379216470139                                 6.344813925925925E14
4                                                 1.496859541254471                                 -1.9593845576086804E7i                            1.496859541254471                                 6.245676208333332E14
4                                                 1.4975038438312662                                -1.9602279477094926E7i                            1.4975038438312662                                6.245676208333332E14
4                                                 1.4975206734782776                                -1.9602499776659146E7i                            1.4975206734782776                                6.245676208333332E14
4                                                 1.497895460084033                                 -1.960740572185625E7i                             1.497895460084033                                 6.245676208333332E14
4                                                 1.497917217439689                                 -1.9607690524975795E7i                            1.497917217439689                                 6.245676208333332E14
5                                                 1.4963602181198166                                -1.928596622920712E7i                             1.4963602181198166                                6.149588882051282E14
5                                                 1.49702473165407                                  -1.929453086854013E7i                             1.49702473165407                                  6.149588882051282E14
5                                                 1.4970422764646285                                -1.9294756996326633E7i                            1.4970422764646285                                6.149588882051282E14
5                                                 1.4974286603299143                                -1.9299736937711854E7i                            1.4974286603299143                                6.149588882051282E14
5                                                 1.4974513674483065                                -1.930002960034293E7i                             1.4974513674483065                                6.149588882051282E14
6                                                 1.4958585183254645                                -1.898738639184239E7i                             1.4958585183254645                                6.056413292929292E14
6                                                 1.4965435546916706                                -1.899608176645053E7i                             1.4965435546916706                                6.056413292929292E14
6                                                 1.4965618327767316                                -1.899631377573437E7i                             1.4965618327767316                                6.056413292929292E14
6                                                 1.4969599860857898                                -1.9001367656585842E7i                            1.4969599860857898                                6.056413292929292E14
6                                                 1.4969836683669446                                -1.9001668262971684E7i                            1.4969836683669446                                6.056413292929292E14
7                                                 1.495355647312994                                 -1.869770474070651E7i                             1.495355647312994                                 5.966019064676616E14
7                                                 1.496061517833687                                 -1.8706530840774946E7i                            1.496061517833687                                 5.966019064676616E14
7                                                 1.496080547506041                                 -1.8706768784969445E7i                            1.496080547506041                                 5.966019064676616E14
7                                                 1.4964906419138506                                -1.8711896544487268E7i                            1.4964906419138506                                5.966019064676616E14
7                                                 1.496515325064908                                 -1.8712205178939123E7i                            1.496515325064908                                 5.966019064676616E14
8                                                 1.494853193881176                                 -1.8416548282715064E7i                            1.494853193881176                                 5.878283490196079E14
8                                                 1.4955802094247486                                -1.8425505093266957E7i                            1.4955802094247486                                5.878283490196079E14
8                                                 1.4956000088465173                                -1.842574902157274E7i                             1.4956000088465173                                5.878283490196079E14
8                                                 1.4960222156816647                                -1.8430950597618207E7i                            1.4960222156816647                                5.878283490196079E14
8                                                 1.496047925361284                                 -1.8431267340130433E7i                            1.496047925361284                                 5.878283490196079E14
9                                                 1.4943526916065786                                -1.8143564977095116E7i                            1.4943526916065786                                5.79309097584541E14
9                                                 1.4951011621462933                                -1.8152652472936645E7i                            1.4951011621462933                                5.79309097584541E14
9                                                 1.495121749714059                                 -1.8152902435261857E7i                            1.495121749714059                                 5.79309097584541E14
9                                                 1.495556239560588                                 -1.8158177759358145E7i                            1.495556239560588                                 5.79309097584541E14
9                                                 1.4955830017634608                                -1.8158502690526992E7i                            1.4955830017634608                                5.79309097584541E14
10                                                1.4938545461657906                                -1.7878409401013948E7i                            1.4938545461657906                                5.710332533333332E14
10                                                1.4946247814912146                                -1.788762755583257E7i                             1.4946247814912146                                5.710332533333332E14
10                                                1.4946461756027694                                -1.7887883599960912E7i                            1.4946461756027694                                5.710332533333332E14
10                                                1.4950931188161418                                -1.7893232603830256E7i                            1.4950931188161418                                5.710332533333332E14
10                                                1.495120959643548                                 -1.789356580207349E7i                             1.495120959643548                                 5.710332533333332E14
11                                                1.4933609934027208                                -1.762077718697293E7i                             1.4933609934027208                                5.629905314553991E14
11                                                1.4941533019980417                                -1.763012596016518E7i                             1.4941533019980417                                5.629905314553991E14
11                                                1.4941755211955425                                -1.7630388133564755E7i                            1.4941755211955425                                5.629905314553991E14
11                                                1.4946350871824718                                -1.7635810740619693E7i                            1.4946350871824718                                5.629905314553991E14
11                                                1.4946640329758694                                -1.7636152283875618E7i                            1.4946640329758694                                5.629905314553991E14
12                                                1.4928707776662355                                -1.737034025138936E7i                             1.4928707776662355                                5.551712185185185E14
12                                                1.4936854688834276                                -1.7379819614140745E7i                            1.4936854688834276                                5.551712185185185E14
12                                                1.4937085314068388                                -1.7380087958785642E7i                            1.4937085314068388                                5.551712185185185E14
12                                                1.4941808900910125                                -1.7385584101645123E7i                            1.4941808900910125                                5.551712185185185E14
12                                                1.4942109670010586                                -1.7385934062384542E7i                            1.4942109670010586                                5.551712185185185E14
13                                                1.492385032814711-4.998458165190097E-16i          -5.736299342844612E-9-1.712681591020295E7i        1.492385032814711                                 5.475661333333333E14
13                                                1.4932224149520268                                -1.713642582279049E7i                             1.4932224149520268                                5.475661333333333E14
13                                                1.4932463394259077                                -1.7136700383343495E7i                            1.4932463394259077                                5.475661333333333E14
13                                                1.4937316598322814                                -1.714226998708158E7i                             1.4937316598322814                                5.475661333333333E14
13                                                1.4937628944943164                                -1.714262844035934E7i                             1.4937628944943164                                5.475661333333333E14
14                                                1.4919053880577247                                -1.6889942367470905E7i                            1.4919053880577247                                5.4016659099099094E14
14                                                1.4927657681178768                                -1.6899682777115118E7i                            1.4927657681178768                                5.4016659099099094E14
14                                                1.4927905734378932                                -1.6899963599497583E7i                            1.4927905734378932                                5.4016659099099094E14
14                                                1.493289023597353                                 -1.690560658097196E7i                             1.493289023597353                                 5.4016659099099094E14
14                                                1.4933214430137505                                -1.6905973602955338E7i                            1.4933214430137505                                5.4016659099099094E14
15                                                1.4914301139337494                                -1.6659434272984372E7i                            1.4914301139337494                                5.3296436977777775E14
15                                                1.4923138003557441                                -1.6669305145060519E7i                            1.4923138003557441                                5.3296436977777775E14
15                                                1.4923395047815475                                -1.6669592266252585E7i                            1.4923395047815475                                5.3296436977777775E14
15                                                1.4928512537150207                                -1.6675308556705497E7i                            1.4928512537150207                                5.3296436977777775E14
15                                                1.4928848843646425                                -1.6675684214667408E7i                            1.4928848843646425                                5.3296436977777775E14
16                                                1.490961547165799                                 -1.643506611705595E7i                             1.490961547165799                                 5.259516807017543E14
16                                                1.491868846528976                                 -1.6445067397806698E7i                            1.491868846528976                                 5.259516807017543E14
16                                                1.4918954686748906                                -1.6445360857238377E7i                            1.4918954686748906                                5.259516807017543E14
16                                                1.4924206840430638                                -1.645115037563208E7i                             1.4924206840430638                                5.259516807017543E14
16                                                1.4924555528498165                                -1.6451534739095706E7i                            1.4924555528498165                                5.259516807017543E14
17                                                1.49049786448494                                  -1.6216578844180647E7i                            1.49049786448494                                  5.191211393939393E14
17                                                1.491429084140646                                 -1.6226710490342531E7i                            1.491429084140646                                 5.191211393939393E14
17                                                1.4914566427318732                                -1.6227010327113934E7i                            1.4914566427318732                                5.191211393939393E14
17                                                1.4919954924862446                                -1.623287299873202E7i                             1.4919954924862446                                5.191211393939393E14
17                                                1.4920316265988294                                -1.6233266136957612E7i                            1.4920316265988294                                5.191211393939393E14
18                                                1.490041257833628                                 -1.6003769809079725E7i                            1.490041257833628                                 5.124657401709402E14
18                                                1.490996703615113                                 -1.601403176274816E7i                             1.490996703615113                                 5.124657401709402E14
18                                                1.4910252173603387                                -1.6014338014278166E7i                            1.4910252173603387                                5.124657401709402E14
18                                                1.4915778684473098                                -1.6020273756482704E7i                            1.4915778684473098                                5.124657401709402E14
18                                                1.4916152950865216                                -1.6020675736840982E7i                            1.4916152950865216                                5.124657401709402E14
19                                                1.4895913778701535                                -1.5796419677865218E7i                            1.4895913778701535                                5.059788320675105E14
19                                                1.4905713554362683                                -1.5806811881485097E7i                            1.4905713554362683                                5.059788320675105E14
19                                                1.4906008431760258                                -1.5807124585169801E7i                            1.4906008431760258                                5.059788320675105E14
19                                                1.4911674622673092                                -1.581313331554806E7i                             1.4911674622673092                                5.059788320675105E14
19                                                1.4912062088895346                                -1.5813544205349697E7i                            1.4912062088895346                                5.059788320675105E14
20                                                1.4891467453485323-3.491054446998506E-16i         -3.6558236679908274E-9-1.5594308251013663E7i      1.4891467453485323                                4.996540966666666E14
20                                                1.4901515616579066                                -1.5604830662799453E7i                            1.4901515616579066                                4.996540966666666E14
20                                                1.4901820416285623                                -1.5605149848305766E7i                            1.4901820416285623                                4.996540966666666E14
20                                                1.4907627962930876                                -1.5611231496931136E7i                            1.4907627962930876                                4.996540966666666E14
20                                                1.4908028898608001                                -1.5611651355790406E7i                            1.4908028898608001                                4.996540966666666E14
21                                                1.4887089853063777-6.648127068633341E-16i         -6.875952974139902E-9-1.5397258309700847E7i       1.4887089853063777                                4.9348552757201644E14
21                                                1.4897389452681085                                -1.5407910868216945E7i                            1.4897389452681085                                4.9348552757201644E14
21                                                1.4897704364767501                                -1.540823657208434E7i                             1.4897704364767501                                4.9348552757201644E14
21                                                1.4903654926413172                                -1.5414391054636035E7i                            1.4903654926413172                                4.9348552757201644E14
21                                                1.4904069609789075                                -1.541481994887383E7i                             1.4904069609789075                                4.9348552757201644E14
22                                                1.488277778465764-1.0627811361165597E-15i         -1.0857968811699506E-8-1.5205081415704004E7i      1.488277778465764                                 4.874674113821138E14
22                                                1.4893331873472127                                -1.521586406542268E7i                             1.4893331873472127                                4.874674113821138E14
22                                                1.4893657083623018                                -1.5216196318372572E7i                            1.4893657083623018                                4.874674113821138E14
22                                                1.489975232228952                                 -1.5222423556426736E7i                            1.489975232228952                                 4.874674113821138E14
22                                                1.4900181028237576                                -1.5222861546494043E7i                            1.4900181028237576                                4.874674113821138E14
23                                                1.487853054051557                                 -1.5017600720416091E7i                            1.487853054051557                                 4.8159431004016056E14
23                                                1.4889342165027815                                -1.5028513401585903E7i                            1.4889342165027815                                4.8159431004016056E14
23                                                1.4889677862891189                                -1.5028852237229725E7i                            1.4889677862891189                                4.8159431004016056E14
23                                                1.4895919434158937                                -1.5035152148696912E7i                            1.4895919434158937                                4.8159431004016056E14
23                                                1.489636244252786                                 -1.5035599297881583E7i                            1.489636244252786                                 4.8159431004016056E14
24                                                1.4874345500069575                                -1.4834645888880946E7i                            1.4874345500069575                                4.7586104444444444E14
24                                                1.4885417710920466                                -1.4845688548013693E7i                            1.4885417710920466                                4.7586104444444444E14
24                                                1.4885764080861041                                -1.4846033993493292E7i                            1.4885764080861041                                4.7586104444444444E14
24                                                1.4892153643766715                                -1.4852406502662852E7i                            1.4892153643766715                                4.7586104444444444E14
24                                                1.4892611230126551                                -1.4852862867725216E7i                            1.4892611230126551                                4.7586104444444444E14
25                                                1.4870219389631818                                -1.4656053958191626E7i                            1.4870219389631818                                4.7026267921568625E14
25                                                1.488155523595749                                 -1.4667226542203847E7i                            1.488155523595749                                 4.7026267921568625E14
25                                                1.4881912463463407                                -1.4667578624810357E7i                            1.4881912463463407                                4.7026267921568625E14
25                                                1.4888451674528764                                -1.4674023656165086E7i                            1.4888451674528764                                4.7026267921568625E14
25                                                1.4888924116594835                                -1.4674489293976542E7i                            1.4888924116594835                                4.7026267921568625E14
26                                                1.4866160116086917                                -1.4481680436523484E7i                            1.4866160116086917                                4.6479450852713175E14
26                                                1.4877762635586174                                -1.4492982883041931E7i                            1.4877762635586174                                4.6479450852713175E14
26                                                1.4878130908895404                                -1.4493341631793184E7i                            1.4878130908895404                                4.6479450852713175E14
26                                                1.488482141561726                                 -1.4499859103658667E7i                            1.488482141561726                                 4.6479450852713175E14
26                                                1.4885308994783026                                -1.450033407268974E7i                             1.4885308994783026                                4.6479450852713175E14
27                                                1.4862155889230866                                -1.4311368508234164E7i                            1.4862155889230866                                4.594520429118774E14
27                                                1.4874028130227666                                -1.4322800767267786E7i                            1.4874028130227666                                4.594520429118774E14
27                                                1.487440763269868                                 -1.4323166205482332E7i                            1.487440763269868                                 4.594520429118774E14