% Model:              HY_Ge-backup.mph
% Version:            COMSOL 6.2.0.415
% Date:               Jul 31 2024, 11:50
% Table:              Table 2 - All_Compacted
% height_substrate (nm)                           ratio                                             height_waveguide (nm)                             daddy                                             Effective mode index                              real(ewfd.neff) (1)                               Wavelength in free space (nm)                     Propagation constant (rad/m)
250                                               2                                                 1499.9999999999998                                1                                                 1.4711102320733704-6.36900263154386E-16i          1.4711102320733704                                314.4                                             2.9399676194036108E7
250                                               2                                                 1499.9999999999998                                1                                                 1.4754898223229185                                1.4754898223229185                                314.4                                             2.9487200930382885E7
250                                               2                                                 1499.9999999999998                                1                                                 1.4755166292247643                                1.4755166292247643                                314.4                                             2.948773665790136E7
250                                               2                                                 1499.9999999999998                                1                                                 1.478112045990546                                 1.478112045990546                                 314.4                                             2.9539605247242223E7
250                                               2                                                 1499.9999999999998                                1                                                 1.4782228170960454                                1.4782228170960454                                314.4                                             2.9541818973013643E7
250                                               2                                                 1499.9999999999998                                2                                                 1.4683665798161483                                1.4683665798161483                                318.8                                             2.8939834754875667E7
250                                               2                                                 1499.9999999999998                                2                                                 1.4728731172131198                                1.4728731172131198                                318.8                                             2.9028653479966342E7
250                                               2                                                 1499.9999999999998                                2                                                 1.4729009933777477                                1.4729009933777477                                318.8                                             2.9029202887456965E7
250                                               2                                                 1499.9999999999998                                2                                                 1.4755711810715693                                1.4755711810715693                                318.8                                             2.90818292490794E7
250                                               2                                                 1499.9999999999998                                2                                                 1.47568664765739                                  1.47568664765739                                  318.8                                             2.908410496412174E7
250                                               2                                                 1499.9999999999998                                3                                                 1.4661265796529432                                1.4661265796529432                                323.19999999999993                                2.85023050239506E7
250                                               2                                                 1499.9999999999998                                3                                                 1.4707605570660987                                1.4707605570660987                                323.19999999999993                                2.859239208705747E7
250                                               2                                                 1499.9999999999998                                3                                                 1.4707895224539482                                1.4707895224539482                                323.19999999999993                                2.8592955190087646E7
250                                               2                                                 1499.9999999999998                                3                                                 1.473534747556938                                 1.473534747556938                                 323.19999999999993                                2.8646323872117367E7
250                                               2                                                 1499.9999999999998                                3                                                 1.4736550023389117                                1.4736550023389117                                323.19999999999993                                2.864866169105058E7
250                                               2                                                 1499.9999999999998                                4                                                 1.4642893946314124                                1.4642893946314124                                327.6                                             2.8084253998189803E7
250                                               2                                                 1499.9999999999998                                4                                                 1.4690514823581236                                1.4690514823581236                                327.6                                             2.8175588185112793E7
250                                               2                                                 1499.9999999999998                                4                                                 1.4690815578979186                                1.4690815578979186                                327.6                                             2.8176165017193824E7
250                                               2                                                 1499.9999999999998                                4                                                 1.4719021917071549                                1.4719021917071549                                327.6                                             2.8230263200671013E7
250                                               2                                                 1499.9999999999998                                4                                                 1.4720273327947386                                1.4720273327947386                                327.6                                             2.823266333694339E7
250                                               2                                                 1499.9999999999998                                5                                                 1.462773499729418-5.219842869251807E-16i          1.462773499729418                                 331.99999999999994                                2.768336434105886E7
250                                               2                                                 1499.9999999999998                                5                                                 1.4676645178918435                                1.4676645178918435                                331.99999999999994                                2.7775928116526634E7
250                                               2                                                 1499.9999999999998                                5                                                 1.4676957253199048                                1.4676957253199048                                331.99999999999994                                2.777651872512142E7
250                                               2                                                 1499.9999999999998                                5                                                 1.470592227586696                                 1.470592227586696                                 331.99999999999994                                2.7831335774774782E7
250                                               2                                                 1499.9999999999998                                5                                                 1.4707223577956037                                1.4707223577956037                                331.99999999999994                                2.783379852241523E7
250                                               2                                                 1499.9999999999998                                6                                                 1.461512962209874                                 1.461512962209874                                 336.4                                             2.729773118433292E7
250                                               2                                                 1499.9999999999998                                6                                                 1.4665338572025814                                1.4665338572025814                                336.4                                             2.7391510059621476E7
250                                               2                                                 1499.9999999999998                                6                                                 1.4665662189343682                                1.4665662189343682                                336.4                                             2.7392114503015287E7
250                                               2                                                 1499.9999999999998                                6                                                 1.4695391238980111                                1.4695391238980111                                336.4                                             2.744764159215679E7
250                                               2                                                 1499.9999999999998                                6                                                 1.4696743501828191                                1.4696743501828191                                336.4                                             2.745016731096134E7
250                                               2                                                 1499.9999999999998                                7                                                 1.4604544564584918-2.3468907670327616E-16i        1.4604544564584918                                340.8                                             2.6925780465448778E7
250                                               2                                                 1499.9999999999998                                7                                                 1.4656062809160912                                1.4656062809160912                                340.8                                             2.702076247171978E7
250                                               2                                                 1499.9999999999998                                7                                                 1.4656398199427956                                1.4656398199427956                                340.8                                             2.702138081655489E7
250                                               2                                                 1499.9999999999998                                7                                                 1.468689724447816                                 1.468689724447816                                 340.8                                             2.7077610614601385E7
250                                               2                                                 1499.9999999999998                                7                                                 1.4688301574314642                                1.4688301574314642                                340.8                                             2.708019971806236E7
250                                               2                                                 1499.9999999999998                                8                                                 1.4595548634678408-1.8787516877959056E-16i        1.4595548634678408                                345.19999999999993                                2.6566204151690744E7
250                                               2                                                 1499.9999999999998                                8                                                 1.4648387592647674                                1.4648387592647674                                345.19999999999993                                2.666237940208448E7
250                                               2                                                 1499.9999999999998                                8                                                 1.4648734990694428                                1.4648734990694428                                345.19999999999993                                2.666301172140751E7
250                                               2                                                 1499.9999999999998                                8                                                 1.4680010524791054                                1.4680010524791054                                345.19999999999993                                2.671993813401183E7
250                                               2                                                 1499.9999999999998                                8                                                 1.4681468060608371                                1.4681468060608371                                345.19999999999993                                2.6722591079444062E7
250                                               2                                                 1499.9999999999998                                9                                                 1.458779336796622                                 1.458779336796622                                 349.6                                             2.621790873963877E7
250                                               2                                                 1499.9999999999998                                9                                                 1.4641965206428402                                1.4641965206428402                                349.6                                             2.6315269065579418E7
250                                               2                                                 1499.9999999999998                                9                                                 1.4642324851318584                                1.4642324851318584                                349.6                                             2.631591543728702E7
250                                               2                                                 1499.9999999999998                                9                                                 1.4674383807805518                                1.4674383807805518                                349.6                                             2.6373533390479874E7
250                                               2                                                 1499.9999999999998                                9                                                 1.467589571807674                                 1.467589571807674                                 349.6                                             2.6376250670915205E7
250                                               2                                                 1499.9999999999998                                10                                                1.4580997415647985+3.0988553493961907E-16i        1.4580997415647985                                354                                               2.587997421639066E7
250                                               2                                                 1499.9999999999998                                10                                                1.4636514928137445                                1.4636514928137445                                354                                               2.5978512865759287E7
250                                               2                                                 1499.9999999999998                                10                                                1.46368870626031                                  1.46368870626031                                  354                                               2.5979173371354453E7
250                                               2                                                 1499.9999999999998                                10                                                1.4669736742180994                                1.4669736742180994                                354                                               2.6037478632391002E7
250                                               2                                                 1499.9999999999998                                10                                                1.4671304222097479                                1.4671304222097479                                354                                               2.6040260769899633E7
250                                               2                                                 1499.9999999999998                                11                                                1.4574933924121052+7.609198035789612E-16i         1.4574933924121052                                358.3999999999999                                 2.555162128491928E7
250                                               2                                                 1499.9999999999998                                11                                                1.463181042747709                                 1.463181042747709                                 358.3999999999999                                 2.5651332671696737E7
250                                               2                                                 1499.9999999999998                                11                                                1.4632195297448907                                1.4632195297448907                                358.3999999999999                                 2.565200739528828E7
250                                               2                                                 1499.9999999999998                                11                                                1.466584330697168                                 1.466584330697168                                 358.3999999999999                                 2.5710996424040884E7
250                                               2                                                 1499.9999999999998                                11                                                1.4667467576105757                                1.4667467576105757                                358.3999999999999                                 2.5713843964207776E7
250                                               2                                                 1499.9999999999998                                12                                                1.4569420315545893+2.6771898998241286E-16i        1.4569420315545893                                362.8                                             2.5232185132514257E7
250                                               2                                                 1499.9999999999998                                12                                                1.4627669562713768                                1.4627669562713768                                362.8                                             2.5333064629195474E7
250                                               2                                                 1499.9999999999998                                12                                                1.4628067416927877                                1.4628067416927877                                362.8                                             2.5333753656690646E7
250                                               2                                                 1499.9999999999998                                12                                                1.466252161765567                                 1.466252161765567                                 362.8                                             2.539342348243031E7
250                                               2                                                 1499.9999999999998                                12                                                1.4664203917975032                                1.4664203917975032                                362.8                                             2.5396336989775643E7
250                                               2                                                 1499.9999999999998                                13                                                1.4564310000528735+2.7862729046513733E-15i        1.4564310000528735                                367.2                                             2.4921094391212106E7
250                                               2                                                 1499.9999999999998                                13                                                1.4623946106843806                                1.4623946106843806                                367.2                                             2.5023138156728514E7
250                                               2                                                 1499.9999999999998                                13                                                1.4624357196509952                                1.4624357196509952                                367.2                                             2.502384157517902E7
250                                               2                                                 1499.9999999999998                                13                                                1.4659625660367859                                1.4659625660367859                                367.2                                             2.508418969443795E7
250                                               2                                                 1499.9999999999998                                13                                                1.4661367254541013                                1.4661367254541013                                367.2                                             2.508716974861002E7
250                                               2                                                 1499.9999999999998                                14                                                1.4559485648594084+1.808036235877135E-14i         1.4559485648594084                                371.6                                             2.4617854226947892E7
250                                               2                                                 1499.9999999999998                                14                                                1.4620523029464083                                1.4620523029464083                                371.6                                             2.472105906404991E7
250                                               2                                                 1499.9999999999998                                14                                                1.4620947607983226                                1.4620947607983226                                371.6                                             2.4721776961120207E7
250                                               2                                                 1499.9999999999998                                14                                                1.4657038580589457                                1.4657038580589457                                371.6                                             2.478280125304736E7
250                                               2                                                 1499.9999999999998                                14                                                1.4658840750532105                                1.4658840750532105                                371.6                                             2.478584844564819E7
250                                               2                                                 1499.9999999999998                                15                                                1.4554853716910023-3.8186924370838647E-16i        1.4554853716910023                                376                                               2.4322032718680117E7
250                                               2                                                 1499.9999999999998                                15                                                1.4617307035133236                                1.4617307035133236                                376                                               2.4426395955766473E7
250                                               2                                                 1499.9999999999998                                15                                                1.461774535785572                                 1.461774535785572                                 376                                               2.4427128419300973E7
250                                               2                                                 1499.9999999999998                                15                                                1.4654667227272775                                1.4654667227272775                                376                                               2.4488827075533643E7
250                                               2                                                 1499.9999999999998                                15                                                1.4656531272896711                                1.4656531272896711                                376                                               2.449194200746881E7
250                                               2                                                 1499.9999999999998                                16                                                1.4550339997110546+6.657662111896999E-16i         1.4550339997110546                                380.3999999999999                                 2.403324986443545E7
250                                               2                                                 1499.9999999999998                                16                                                1.4614224118334973                                1.4614224118334973                                380.3999999999999                                 2.4138769257663473E7
250                                               2                                                 1499.9999999999998                                16                                                1.4614676442352197                                1.4614676442352197                                380.3999999999999                                 2.413951637533411E7
250                                               2                                                 1499.9999999999998                                16                                                1.4652437712674573                                1.4652437712674573                                380.3999999999999                                 2.4201887841914024E7