% Model:              HY_Ge-backup.mph
% Version:            COMSOL 6.2.0.415
% Date:               Jul 31 2024, 11:50
% Table:              Table 4 - All_Compacted
% height_substrate (nm)                           ratio                                             height_waveguide (nm)                             daddy                                             Effective mode index                              real(ewfd.neff) (1)                               Wavelength in free space (nm)                     Propagation constant (rad/m)
250                                               6                                                 1499.9999999999998                                1                                                 1.4782047341437619                                1.4782047341437619                                314.4                                             2.954145759088865E7
250                                               6                                                 1499.9999999999998                                1                                                 1.4785810322989132                                1.4785810322989132                                314.4                                             2.9548977791396175E7
250                                               6                                                 1499.9999999999998                                1                                                 1.4787154761640675                                1.4787154761640675                                314.4                                             2.9551664609838214E7
250                                               6                                                 1499.9999999999998                                1                                                 1.4788841627467222                                1.4788841627467222                                314.4                                             2.9555035758240424E7
250                                               6                                                 1499.9999999999998                                1                                                 1.479021840908455                                 1.479021840908455                                 314.4                                             2.9557787213084314E7
250                                               6                                                 1499.9999999999998                                2                                                 1.4756676625195975+3.6140528653218457E-16i        1.4756676625195975                                318.8                                             2.9083730788654886E7
250                                               6                                                 1499.9999999999998                                2                                                 1.4760534365440154                                1.4760534365440154                                318.8                                             2.9091333955788244E7
250                                               6                                                 1499.9999999999998                                2                                                 1.4761935952023277                                1.4761935952023277                                318.8                                             2.9094096323487688E7
250                                               6                                                 1499.9999999999998                                2                                                 1.4763655346206668                                1.4763655346206668                                318.8                                             2.9097485053810876E7
250                                               6                                                 1499.9999999999998                                2                                                 1.4765090693940153                                1.4765090693940153                                318.8                                             2.9100313960896738E7
250                                               6                                                 1499.9999999999998                                3                                                 1.4736351117890887+2.3905295478394984E-15i        1.4736351117890887                                323.19999999999993                                2.864827500785009E7
250                                               6                                                 1499.9999999999998                                3                                                 1.4740303161446655                                1.4740303161446655                                323.19999999999993                                2.8655957997331195E7
250                                               6                                                 1499.9999999999998                                3                                                 1.4741763026701808                                1.4741763026701808                                323.19999999999993                                2.865879605547527E7
250                                               6                                                 1499.9999999999998                                3                                                 1.4743514193617313                                1.4743514193617313                                323.19999999999993                                2.866220042002784E7
250                                               6                                                 1499.9999999999998                                3                                                 1.4745009266818385                                1.4745009266818385                                323.19999999999993                                2.8665106924350284E7
250                                               6                                                 1499.9999999999998                                4                                                 1.4720065307808543+2.5844598709584375E-16i        1.4720065307808543                                327.6                                             2.8232264365917757E7
250                                               6                                                 1499.9999999999998                                4                                                 1.4724111352279026                                1.4724111352279026                                327.6                                             2.8240024453576222E7
250                                               6                                                 1499.9999999999998                                4                                                 1.4725630693216267                                1.4725630693216267                                327.6                                             2.8242938464764707E7
250                                               6                                                 1499.9999999999998                                4                                                 1.4727412940599187                                1.4727412940599187                                327.6                                             2.8246356715854485E7
250                                               6                                                 1499.9999999999998                                4                                                 1.4728968966701756                                1.4728968966701756                                327.6                                             2.8249341087144244E7
250                                               6                                                 1499.9999999999998                                5                                                 1.4707006356782921+3.3654972961102675E-16i        1.4707006356782921                                331.99999999999994                                2.7833387425763626E7
250                                               6                                                 1499.9999999999998                                5                                                 1.4711146228248895                                1.4711146228248895                                331.99999999999994                                2.7841222238886703E7
250                                               6                                                 1499.9999999999998                                5                                                 1.4712726299794254                                1.4712726299794254                                331.99999999999994                                2.7844212564886127E7
250                                               6                                                 1499.9999999999998                                5                                                 1.4714538987585954                                1.4714538987585954                                331.99999999999994                                2.784764312310881E7
250                                               6                                                 1499.9999999999998                                5                                                 1.4716157253549005                                1.4716157253549005                                331.99999999999994                                2.7850705733025122E7
250                                               6                                                 1499.9999999999998                                6                                                 1.469651696973757+2.1907632192793526E-15i         1.469651696973757                                 336.4                                             2.7449744200645227E7
250                                               6                                                 1499.9999999999998                                6                                                 1.470075060145692                                 1.470075060145692                                 336.4                                             2.7457651659805465E7
250                                               6                                                 1499.9999999999998                                6                                                 1.4702392709546148                                1.4702392709546148                                336.4                                             2.7460718743461538E7
250                                               6                                                 1499.9999999999998                                6                                                 1.4704235240052308                                1.4704235240052308                                336.4                                             2.7464160170513958E7
250                                               6                                                 1499.9999999999998                                6                                                 1.4705917085282068                                1.4705917085282068                                336.4                                             2.746730147409201E7
250                                               6                                                 1499.9999999999998                                7                                                 1.468806560021868+2.3296562729541894E-15i         1.468806560021868                                 340.8                                             2.7079764662612647E7
250                                               6                                                 1499.9999999999998                                7                                                 1.4692393014243446                                1.4692393014243446                                340.8                                             2.7087742932629813E7
250                                               6                                                 1499.9999999999998                                7                                                 1.4694098510087208                                1.4694098510087208                                340.8                                             2.7090887283107214E7
250                                               6                                                 1499.9999999999998                                7                                                 1.4695970319390974                                1.4695970319390974                                340.8                                             2.70943382586692E7
250                                               6                                                 1499.9999999999998                                7                                                 1.4697717129861274                                1.4697717129861274                                340.8                                             2.7097558779174313E7
250                                               6                                                 1499.9999999999998                                8                                                 1.468122249434303+2.6179491897889244E-16i         1.468122249434303                                 345.19999999999993                                2.672214411004941E7
250                                               6                                                 1499.9999999999998                                8                                                 1.4685643785741505                                1.4685643785741505                                345.19999999999993                                2.67301915588193E7
250                                               6                                                 1499.9999999999998                                8                                                 1.4687414061040787                                1.4687414061040787                                345.19999999999993                                2.6733413739511684E7
250                                               6                                                 1499.9999999999998                                8                                                 1.468931461157617                                 1.468931461157617                                 345.19999999999993                                2.6736873041713156E7
250                                               6                                                 1499.9999999999998                                8                                                 1.4691127814921334                                1.4691127814921334                                345.19999999999993                                2.6740173358230323E7
250                                               6                                                 1499.9999999999998                                9                                                 1.4675640392345703+5.327742224717607E-16i         1.4675640392345703                                349.6                                             2.6375791786795698E7
250                                               6                                                 1499.9999999999998                                9                                                 1.4680155715717347                                1.4680155715717347                                349.6                                             2.638390695083056E7
250                                               6                                                 1499.9999999999998                                9                                                 1.4681992198653404                                1.4681992198653404                                349.6                                             2.6387207569423445E7
250                                               6                                                 1499.9999999999998                                9                                                 1.468392097282567                                 1.468392097282567                                 349.6                                             2.6390674058422316E7
250                                               6                                                 1499.9999999999998                                9                                                 1.468580203422643                                 1.468580203422643                                 349.6                                             2.639405479565205E7
250                                               6                                                 1499.9999999999998                                10                                                1.4671038954222082+4.23148851886374E-16i          1.4671038954222082                                354                                               2.603978994300213E7
250                                               6                                                 1499.9999999999998                                10                                                1.4675648512211457                                1.4675648512211457                                354                                               2.604797149866073E7
250                                               6                                                 1499.9999999999998                                10                                                1.4677552664068063                                1.4677552664068063                                354                                               2.6051351198934194E7
250                                               6                                                 1499.9999999999998                                10                                                1.4679509158804656                                1.4679509158804656                                354                                               2.6054823803166546E7
250                                               6                                                 1499.9999999999998                                10                                                1.468145957752189                                 1.468145957752189                                 354                                               2.6058285623004675E7
250                                               6                                                 1499.9999999999998                                11                                                1.4667192169583472+1.795190493144757E-16i         1.4667192169583472                                358.3999999999999                                 2.571336114327744E7
250                                               6                                                 1499.9999999999998                                11                                                1.4671896203124177                                1.4671896203124177                                358.3999999999999                                 2.5721607882794026E7
250                                               6                                                 1499.9999999999998                                11                                                1.4673869515427507                                1.4673869515427507                                358.3999999999999                                 2.572506733783609E7
250                                               6                                                 1499.9999999999998                                11                                                1.4675853237546652                                1.4675853237546652                                358.3999999999999                                 2.572854504254383E7
250                                               6                                                 1499.9999999999998                                11                                                1.467787454398569                                 1.467787454398569                                 358.3999999999999                                 2.5732088637108304E7
250                                               6                                                 1499.9999999999998                                12                                                1.4663918163857153+1.0730807654231262E-15i        1.4663918163857153                                362.8                                             2.539584210386745E7
250                                               6                                                 1499.9999999999998                                12                                                1.466871694390149                                 1.466871694390149                                 362.8                                             2.5404152915407408E7
250                                               6                                                 1499.9999999999998                                12                                                1.4670760935988907                                1.4670760935988907                                362.8                                             2.540769282198173E7
250                                               6                                                 1499.9999999999998                                12                                                1.4672771398276896                                1.4672771398276896                                362.8                                             2.5411174659663245E7
250                                               6                                                 1499.9999999999998                                12                                                1.4674865151491505                                1.4674865151491505                                362.8                                             2.5414800745505277E7
250                                               6                                                 1499.9999999999998                                13                                                1.4661070932643503-3.80514821161049E-15i          1.4661070932643503                                367.2                                             2.5086662710104402E7
250                                               6                                                 1499.9999999999998                                13                                                1.4665964753164027                                1.4665964753164027                                367.2                                             2.5095036561191145E7
250                                               6                                                 1499.9999999999998                                13                                                1.4668080970108341                                1.4668080970108341                                367.2                                             2.509865763505044E7
250                                               6                                                 1499.9999999999998                                13                                                1.467011768800818                                 1.467011768800818                                 367.2                                             2.5102142677529506E7
250                                               6                                                 1499.9999999999998                                13                                                1.4672285473569295                                1.4672285473569295                                367.2                                             2.510585199081565E7
250                                               6                                                 1499.9999999999998                                14                                                1.465853363049491-2.50289636815431E-16i           1.465853363049491                                 371.6                                             2.4785329152831923E7
250                                               6                                                 1499.9999999999998                                14                                                1.4663522802572058                                1.4663522802572058                                371.6                                             2.4793765076591376E7
250                                               6                                                 1499.9999999999998                                14                                                1.4665712813400409                                1.4665712813400409                                371.6                                             2.479746804856642E7
250                                               6                                                 1499.9999999999998                                14                                                1.4667775302226476                                1.4667775302226476                                371.6                                             2.480095540042007E7
250                                               6                                                 1499.9999999999998                                14                                                1.4670018730393142                                1.4670018730393142                                371.6                                             2.480474869291052E7
250                                               6                                                 1499.9999999999998                                15                                                1.4656213115107577                                1.4656213115107577                                376                                               2.4491410346738476E7
250                                               6                                                 1499.9999999999998                                15                                                1.4661297961940793                                1.4661297961940793                                376                                               2.4499907430491596E7
250                                               6                                                 1499.9999999999998                                15                                                1.4663563358101366                                1.4663563358101366                                376                                               2.4503693043223258E7
250                                               6                                                 1499.9999999999998                                15                                                1.4665651130702007                                1.4665651130702007                                376                                               2.4507181836342692E7
250                                               6                                                 1499.9999999999998                                15                                                1.4667971834846747                                1.4667971834846747                                376                                               2.4511059872030072E7
250                                               6                                                 1499.9999999999998                                16                                                1.465403550720572                                 1.465403550720572                                 380.3999999999999                                 2.42045269689177E7
250                                               6                                                 1499.9999999999998                                16                                                1.4659216359908145                                1.4659216359908145                                380.3999999999999                                 2.421308434472699E7
250                                               6                                                 1499.9999999999998                                16                                                1.4661558753945676                                1.4661558753945676                                380.3999999999999                                 2.42169533499321E7
250                                               6                                                 1499.9999999999998                                16                                                1.4663671318746752                                1.4663671318746752                                380.3999999999999                                 2.422044273902742E7