% Model:              HY_Ge-backup.mph
% Version:            COMSOL 6.2.0.415
% Date:               Jul 31 2024, 11:50
% Table:              Table 3 - All_Compacted
% height_substrate (nm)                           ratio                                             height_waveguide (nm)                             daddy                                             Effective mode index                              real(ewfd.neff) (1)                               Wavelength in free space (nm)                     Propagation constant (rad/m)
250                                               4                                                 1499.9999999999998                                1                                                 1.4770652673632503                                1.4770652673632503                                314.4                                             2.951868570496839E7
250                                               4                                                 1499.9999999999998                                1                                                 1.4780849815990573                                1.4780849815990573                                314.4                                             2.9539064373874065E7
250                                               4                                                 1499.9999999999998                                1                                                 1.4782093064643025                                1.4782093064643025                                314.4                                             2.954154896727936E7
250                                               4                                                 1499.9999999999998                                1                                                 1.4787601887896245                                1.4787601887896245                                314.4                                             2.9552558177624296E7
250                                               4                                                 1499.9999999999998                                1                                                 1.4788953375416491                                1.4788953375416491                                314.4                                             2.9555259083009176E7
250                                               4                                                 1499.9999999999998                                2                                                 1.4744944966783666                                1.4744944966783666                                318.8                                             2.9060609024613146E7
250                                               4                                                 1499.9999999999998                                2                                                 1.4755428663172803                                1.4755428663172803                                318.8                                             2.908127119748553E7
250                                               4                                                 1499.9999999999998                                2                                                 1.4756724639742917                                1.4756724639742917                                318.8                                             2.9083825419864386E7
250                                               4                                                 1499.9999999999998                                2                                                 1.4762379331333981                                1.4762379331333981                                318.8                                             2.9094970173666645E7
250                                               4                                                 1499.9999999999998                                2                                                 1.476378828020165                                 1.476378828020165                                 318.8                                             2.9097747051591337E7
250                                               4                                                 1499.9999999999998                                3                                                 1.4724280957980558                                1.4724280957980558                                323.19999999999993                                2.8624809954816706E7
250                                               4                                                 1499.9999999999998                                3                                                 1.4735051686435212                                1.4735051686435212                                323.19999999999993                                2.8645748841813583E7
250                                               4                                                 1499.9999999999998                                3                                                 1.4736401432360469                                1.4736401432360469                                323.19999999999993                                2.8648372821939204E7
250                                               4                                                 1499.9999999999998                                3                                                 1.4742201759759082                                1.4742201759759082                                323.19999999999993                                2.8659648976607457E7
250                                               4                                                 1499.9999999999998                                3                                                 1.4743669307022493                                1.4743669307022493                                323.19999999999993                                2.8662501968997017E7
250                                               4                                                 1499.9999999999998                                4                                                 1.4707654657565756                                1.4707654657565756                                327.6                                             2.820846143085731E7
250                                               4                                                 1499.9999999999998                                4                                                 1.4718713320558696                                1.4718713320558696                                327.6                                             2.8229671329768877E7
250                                               4                                                 1499.9999999999998                                4                                                 1.4720117937959658                                1.4720117937959658                                327.6                                             2.823236530761257E7
250                                               4                                                 1499.9999999999998                                4                                                 1.472606389250001                                 1.472606389250001                                 327.6                                             2.824376931683268E7
250                                               4                                                 1499.9999999999998                                4                                                 1.4727591241894014                                1.4727591241894014                                327.6                                             2.824669868779463E7
250                                               4                                                 1499.9999999999998                                5                                                 1.4694252822063023                                1.4694252822063023                                331.99999999999994                                2.780925103360499E7
250                                               4                                                 1499.9999999999998                                5                                                 1.470560068099438                                 1.470560068099438                                 331.99999999999994                                2.7830727148215063E7
250                                               4                                                 1499.9999999999998                                5                                                 1.4707061324956947                                1.4707061324956947                                331.99999999999994                                2.783349145444537E7
250                                               4                                                 1499.9999999999998                                5                                                 1.471315308632371                                 1.471315308632371                                 331.99999999999994                                2.7845020269359373E7
250                                               4                                                 1499.9999999999998                                5                                                 1.4714741499871156                                1.4714741499871156                                331.99999999999994                                2.7848026382812094E7
250                                               4                                                 1499.9999999999998                                6                                                 1.4683417813240212                                1.4683417813240212                                336.4                                             2.7425277961750865E7
250                                               4                                                 1499.9999999999998                                6                                                 1.4695056432057514                                1.4695056432057514                                336.4                                             2.7447016249131583E7
250                                               4                                                 1499.9999999999998                                6                                                 1.469657430426026                                 1.469657430426026                                 336.4                                             2.7449851288466442E7
250                                               4                                                 1499.9999999999998                                6                                                 1.470281220980464                                 1.470281220980464                                 336.4                                             2.7461502274335653E7
250                                               4                                                 1499.9999999999998                                6                                                 1.4704463000871875                                1.4704463000871875                                336.4                                             2.7464585575815696E7
250                                               4                                                 1499.9999999999998                                7                                                 1.4674617794491207                                1.4674617794491207                                340.8                                             2.7054971512565505E7
250                                               4                                                 1499.9999999999998                                7                                                 1.4686548991397046                                1.4686548991397046                                340.8                                             2.7076968555140574E7
250                                               4                                                 1499.9999999999998                                7                                                 1.468812533482527                                 1.468812533482527                                 340.8                                             2.7079874792777687E7
250                                               4                                                 1499.9999999999998                                7                                                 1.4694509853206656                                1.4694509853206656                                340.8                                             2.70916456590005E7
250                                               4                                                 1499.9999999999998                                7                                                 1.46962243807361                                  1.46962243807361                                  340.8                                             2.7094806660814397E7
250                                               4                                                 1499.9999999999998                                8                                                 1.4667422766867624                                1.4667422766867624                                345.19999999999993                                2.6697026426122252E7
250                                               4                                                 1499.9999999999998                                8                                                 1.4679648573101782                                1.4679648573101782                                345.19999999999993                                2.67192793247604E7
250                                               4                                                 1499.9999999999998                                8                                                 1.4681284667641714                                1.4681284667641714                                345.19999999999993                                2.6722257275274437E7
250                                               4                                                 1499.9999999999998                                8                                                 1.4687816376284997                                1.4687816376284997                                345.19999999999993                                2.6734146016809274E7
250                                               4                                                 1499.9999999999998                                8                                                 1.4689596039982722                                1.4689596039982722                                345.19999999999993                                2.6737385285869896E7
250                                               4                                                 1499.9999999999998                                9                                                 1.4661485263824778                                1.4661485263824778                                349.6                                             2.6350351484866664E7
250                                               4                                                 1499.9999999999998                                9                                                 1.4674007888577572                                1.4674007888577572                                349.6                                             2.6372857769721948E7
250                                               4                                                 1499.9999999999998                                9                                                 1.4675705047326921                                1.4675705047326921                                349.6                                             2.637590798794788E7
250                                               4                                                 1499.9999999999998                                9                                                 1.4682384613207662                                1.4682384613207662                                349.6                                             2.6387912836403318E7
250                                               4                                                 1499.9999999999998                                9                                                 1.4684230849509505                                1.4684230849509505                                349.6                                             2.6391230984230928E7
250                                               4                                                 1499.9999999999998                                10                                                1.465652477104944                                 1.465652477104944                                 354                                               2.6014028558127537E7
250                                               4                                                 1499.9999999999998                                10                                                1.4669346571653874                                1.4669346571653874                                354                                               2.603678611439007E7
250                                               4                                                 1499.9999999999998                                10                                                1.4671106137816368                                1.4671106137816368                                354                                               2.6039909187909618E7
250                                               4                                                 1499.9999999999998                                10                                                1.467793430112589                                 1.467793430112589                                 354                                               2.6052028570785724E7
250                                               4                                                 1499.9999999999998                                10                                                1.467984857979926                                 1.467984857979926                                 354                                               2.6055426245258708E7
250                                               4                                                 1499.9999999999998                                11                                                1.465231513136342                                 1.465231513136342                                 358.3999999999999                                 2.5687279896637212E7
250                                               4                                                 1499.9999999999998                                11                                                1.4665438588009996                                1.4665438588009996                                358.3999999999999                                 2.571028690277035E7
250                                               4                                                 1499.9999999999998                                11                                                1.466726193226736                                 1.466726193226736                                 358.3999999999999                                 2.5713483445696633E7
250                                               4                                                 1499.9999999999998                                11                                                1.4674239492555445                                1.4674239492555445                                358.3999999999999                                 2.5725715952471763E7
250                                               4                                                 1499.9999999999998                                11                                                1.4676223313821672                                1.4676223313821672                                358.3999999999999                                 2.5729193830996327E7
250                                               4                                                 1499.9999999999998                                12                                                1.464867434671549                                 1.464867434671549                                 362.8                                             2.5369441958363086E7
250                                               4                                                 1499.9999999999998                                12                                                1.4662102041025518                                1.4662102041025518                                362.8                                             2.5392696834768288E7
250                                               4                                                 1499.9999999999998                                12                                                1.4663990559304543                                1.4663990559304543                                362.8                                             2.5395967482591636E7
250                                               4                                                 1499.9999999999998                                12                                                1.4671118363741265                                1.4671118363741265                                362.8                                             2.5408311836535756E7
250                                               4                                                 1499.9999999999998                                12                                                1.4673173255829248                                1.4673173255829248                                362.8                                             2.541187062037673E7
250                                               4                                                 1499.9999999999998                                13                                                1.4645456308969493                                1.4645456308969493                                367.2                                             2.505994441651898E7
250                                               4                                                 1499.9999999999998                                13                                                1.4659190905852393                                1.4659190905852393                                367.2                                             2.508344578289552E7
250                                               4                                                 1499.9999999999998                                13                                                1.466114601741924                                 1.466114601741924                                 367.2                                             2.5086791188198004E7
250                                               4                                                 1499.9999999999998                                13                                                1.4668424950864285                                1.4668424950864285                                367.2                                             2.509924622296757E7
250                                               4                                                 1499.9999999999998                                13                                                1.4670552467921716                                1.4670552467921716                                367.2                                             2.5102886632530756E7
250                                               4                                                 1499.9999999999998                                14                                                1.4642544085660134                                1.4642544085660134                                371.6                                             2.4758293288145605E7
250                                               4                                                 1499.9999999999998                                14                                                1.4656588317961157                                1.4656588317961157                                371.6                                             2.478203992809297E7
250                                               4                                                 1499.9999999999998                                14                                                1.4658611463786455                                1.4658611463786455                                371.6                                             2.4785460756974507E7
250                                               4                                                 1499.9999999999998                                14                                                1.4666042440397487                                1.4666042440397487                                371.6                                             2.479802539719529E7
250                                               4                                                 1499.9999999999998                                14                                                1.4668244160698407                                1.4668244160698407                                371.6                                             2.4801748168090142E7
250                                               4                                                 1499.9999999999998                                15                                                1.4639844461625209                                1.4639844461625209                                376                                               2.4464057345924985E7
250                                               4                                                 1499.9999999999998                                15                                                1.4654201117139498                                1.4654201117139498                                376                                               2.448804817757063E7
250                                               4                                                 1499.9999999999998                                15                                                1.4656293758491132                                1.4656293758491132                                376                                               2.449154510666472E7
250                                               4                                                 1499.9999999999998                                15                                                1.4663877714637918                                1.4663877714637918                                376                                               2.4504218351832747E7
250                                               4                                                 1499.9999999999998                                15                                                1.4666155239039649                                1.4666155239039649                                376                                               2.4508024231582135E7
250                                               4                                                 1499.9999999999998                                16                                                1.4637283496723048                                1.4637283496723048                                380.3999999999999                                 2.417685715132295E7
250                                               4                                                 1499.9999999999998                                16                                                1.4651955407214947                                1.4651955407214947                                380.3999999999999                                 2.420109120296095E7
250                                               4                                                 1499.9999999999998                                16                                                1.4654119024442542                                1.4654119024442542                                380.3999999999999                                 2.4204664916939598E7
250                                               4                                                 1499.9999999999998                                16                                                1.466185691272805                                 1.466185691272805                                 380.3999999999999                                 2.421744582808158E7