% Model:              HY_Ge-backup.mph
% Version:            COMSOL 6.2.0.415
% Date:               Jul 29 2024, 16:29
% Table:              Table 1 - Global Evaluation 1
% daddy                                           Effective mode index                              real(ewfd.neff) (1)                               Wavelength in free space (nm)                     Propagation constant (rad/m)
1                                                 1.4570140109993268-2.603452087488139E-9i          1.4570140109993268                                314.4                                             2.9117967640794422E7
1                                                 1.4661779334561678                                1.4661779334561678                                314.4                                             2.9301105754461583E7
1                                                 1.466790268626544-5.9083640696429494E-15i         1.466790268626544                                 314.4                                             2.931334308062436E7
1                                                 1.4731850701457256                                1.4731850701457256                                314.4                                             2.94411411816029E7
1                                                 1.4739071281248992                                1.4739071281248992                                314.4                                             2.945557128365657E7
2                                                 1.455284151668439-3.158737491354086E-9i           1.455284151668439                                 318.8                                             2.8681994979719084E7
2                                                 1.4646572420126855                                1.4646572420126855                                318.8                                             2.8866727926813927E7
2                                                 1.4652953751794464-7.013851965850477E-15i         1.4652953751794464                                318.8                                             2.8879304805538572E7
2                                                 1.4718552772854852                                1.4718552772854852                                318.8                                             2.9008593012970187E7
2                                                 1.4726065409936773                                1.4726065409936773                                318.8                                             2.9023399565959927E7
3                                                 1.4535951725044274-3.823368264624954E-9i          1.4535951725044274                                323.19999999999993                                2.825868759426669E7
3                                                 1.463177651323846-1.691778159002532E-16i          1.463177651323846                                 323.19999999999993                                2.844497623945397E7
3                                                 1.4638422655788899-8.306367379600654E-15i         1.4638422655788899                                323.19999999999993                                2.8457896705178708E7
3                                                 1.4705687814753778                                1.4705687814753778                                323.19999999999993                                2.858866386436597E7
3                                                 1.471349957879647                                 1.471349957879647                                 323.19999999999993                                2.8603850362217516E7
4                                                 1.4519443294020555-4.616915902398268E-9i          1.4519443294020555                                327.6                                             2.7847482531568103E7
4                                                 1.4617363233094072-1.70312858756083E-16i          1.4617363233094072                                327.6                                             2.8035287514006026E7
4                                                 1.4624281100587515-9.858219001834325E-15i         1.4624281100587515                                327.6                                             2.8048555598069463E7
4                                                 1.4693227356662166                                1.4693227356662166                                327.6                                             2.818079067229208E7
4                                                 1.470134537457817                                 1.470134537457817                                 327.6                                             2.819636057793715E7
5                                                 1.4503299335115682-5.561981688838332E-9i          1.4503299335115682                                331.99999999999994                                2.7447866653019976E7
5                                                 1.4603314722587792-2.0538884020409782E-16i        1.4603314722587792                                331.99999999999994                                2.7637148343699686E7
5                                                 1.4610511308609369-1.1695341535441322E-14i        1.4610511308609369                                331.99999999999994                                2.765076806766132E7
5                                                 1.468115341986162                                 1.468115341986162                                 331.99999999999994                                2.7784460078350563E7
5                                                 1.4689584871877366                                1.4689584871877366                                331.99999999999994                                2.7800416817935962E7
6                                                 1.4487482191399101-6.684797165772367E-9i          1.4487482191399101                                336.4                                             2.7059314876047783E7
6                                                 1.45895923907653-2.145697365261118E-16i           1.45895923907653                                  336.4                                             2.7250033456419624E7
6                                                 1.4597074777719379-1.3849745958747865E-14i        1.4597074777719379                                336.4                                             2.726400884993107E7
6                                                 1.466942737745647                                 1.466942737745647                                 336.4                                             2.7399147016281944E7
6                                                 1.467817950431364                                 1.467817950431364                                 336.4                                             2.7415493994544588E7
7                                                 1.4471980299713043-8.015367574276498E-9i          1.4471980299713043                                340.8                                             2.6681377343001585E7
7                                                 1.4576183680048362-2.524764277614348E-16i         1.4576183680048362                                340.8                                             2.687349270341277E7
7                                                 1.4583959029008284-1.63332727021151E-14i          1.4583959029008284                                340.8                                             2.6887827785086237E7
7                                                 1.4658036544228406                                1.4658036544228406                                340.8                                             2.7024401363496874E7
7                                                 1.4667116637618633                                1.4667116637618633                                340.8                                             2.704114194723434E7
8                                                 1.4456770859242258-9.588137563074077E-9i          1.4456770859242258                                345.19999999999993                                2.631360667788325E7
8                                                 1.4563064810301836-2.955213156835173E-16i         1.4563064810301836                                345.19999999999993                                2.6507078459905148E7
8                                                 1.4571140366313444-1.925520606504331E-14i         1.4571140366313444                                345.19999999999993                                2.652177724752955E7
8                                                 1.4646957061352677                                1.4646957061352677                                345.19999999999993                                2.6659775609148737E7
8                                                 1.4656372467655128                                1.4656372467655128                                345.19999999999993                                2.667691313595658E7
9                                                 1.444182986961451-1.1442530202415848E-8i          1.444182986961451                                 349.6                                             2.5955575871152505E7
9                                                 1.45502107949912-3.5904290707905246E-16i          1.45502107949912                                  349.6                                             2.6150363467807353E7
9                                                 1.455859388845639-2.2701995999545125E-14i         1.455859388845639                                 349.6                                             2.616542998087634E7
9                                                 1.4636163875699642                                1.4636163875699642                                349.6                                             2.630484262507683E7
9                                                 1.4645921996251001                                1.4645921996251001                                349.6                                             2.6322380405303944E7
10                                                1.4427150722979911-1.3623154516299331E-8i         1.4427150722979911                                354                                               2.560691001330303E7
10                                                1.4537614004269785-3.7548206139400277E-16i        1.4537614004269785                                354                                               2.580297251781811E7
10                                                1.4546312043361054-2.6665563509625345E-14i        1.4546312043361054                                354                                               2.581841076398182E7
10                                                1.4625649225527158                                1.4625649225527158                                354                                               2.5959227209546532E7
10                                                1.4635757509545835                                1.4635757509545835                                354                                               2.597716851509087E7
11                                                1.4412708307252866-1.618085963267516E-8i          1.4412708307252866                                358.3999999999999                                 2.5267220165400773E7
11                                                1.4525248327508151-4.686922335071731E-16i         1.4525248327508151                                358.3999999999999                                 2.5464516427046336E7
11                                                1.4534268807489188-3.13632430268578E-14i          1.4534268807489188                                358.3999999999999                                 2.54803304190331E7
11                                                1.4615386949556055                                1.4615386949556055                                358.3999999999999                                 2.5622540329295445E7
11                                                1.462585290097902                                 1.462585290097902                                 358.3999999999999                                 2.5640888407478042E7
12                                                1.439848858309003-1.9172913995456563E-8i          1.439848858309003                                 362.8                                             2.493615543298354E7
12                                                1.4513098702319034-4.3397635460904736E-16i        1.4513098702319034                                362.8                                             2.5134644026476864E7
12                                                1.4522449200898033-3.675405478322184E-14i         1.4522449200898033                                362.8                                             2.5150837773799457E7
12                                                1.4605361894665887                                1.4605361894665887                                362.8                                             2.529443088825945E7
12                                                1.4616193067474292                                1.4616193067474292                                362.8                                             2.531318895492133E7
13                                                1.438448457070464-2.2663510804173348E-8i          1.438448457070464                                 367.2                                             2.4613393819717553E7
13                                                1.45011571130947-5.578308611663407E-16i           1.45011571130947                                  367.2                                             2.4813033036519434E7
13                                                1.4510845287141894-4.309762024118044E-14i         1.4510845287141894                                367.2                                             2.482961054001255E7
13                                                1.4595565927946146                                1.4595565927946146                                367.2                                             2.4974576630839378E7
13                                                1.460676992278313                                 1.460676992278313                                 367.2                                             2.4993747866063084E7
14                                                1.4370676135443867-2.6724901925164243E-8i         1.4370676135443867                                371.6                                             2.4298606337044455E7
14                                                1.4489402401093494-6.284790889102799E-16i         1.4489402401093494                                371.6                                             2.449935421861228E7
14                                                1.449943599400542-5.043024443304108E-14i          1.449943599400542                                 371.6                                             2.4516319483295392E7
14                                                1.4585977835052226                                1.4585977835052226                                371.6                                             2.4662648445653185E7
14                                                1.459756230421998                                 1.459756230421998                                 371.6                                             2.4682236003905687E7
15                                                1.4357055424332532-3.14372855911952E-8i           1.4357055424332532                                376                                               2.3991499919289663E7
15                                                1.4477825671967757-7.458336939293305E-16i         1.4477825671967757                                376                                               2.4193314239897665E7
15                                                1.4488212507652323-5.893275847204089E-14i         1.4488212507652323                                376                                               2.4210671264727812E7
15                                                1.4576588616406059                                1.4576588616406059                                376                                               2.4358353038139295E7
15                                                1.458856125830132                                 1.458856125830132                                 376                                               2.4378360040172387E7
16                                                1.434361612800919-3.688956497976943E-8i           1.434361612800919                                 380.3999999999999                                 2.3691797609708592E7
16                                                1.446641957467229-8.043173582989011E-16i          1.446641957467229                                 380.3999999999999                                 2.38946358882955E7
16                                                1.4477167556871695-6.882429197341485E-14i         1.4477167556871695                                380.3999999999999                                 2.391238866532945E7
16                                                1.4567390811377618                                1.4567390811377618                                380.3999999999999                                 2.4061413225549623E7
16                                                1.4579759369242762                                1.4579759369242762                                380.3999999999999                                 2.408184275789696E7
17                                                1.433033885346005-4.318055997111422E-8i           1.433033885346005                                 384.8                                             2.3399213755448263E7
17                                                1.4455163682602845-9.036252771987422E-16i         1.4455163682602845                                384.8                                             2.360303328051095E7
17                                                1.4466280802913392-8.028218702211647E-14i         1.4466280802913392                                384.8                                             2.362118580831588E7
17                                                1.4558363948032225                                1.4558363948032225                                384.8                                             2.3771543257497154E7
17                                                1.4571136215191947                                1.4571136215191947                                384.8                                             2.379239838259002E7
18                                                1.4317218052225658-5.041834385671483E-8i          1.4317218052225658                                389.2                                             2.3113497971590586E7
18                                                1.4444051405099512-9.643976573564897E-16i         1.4444051405099512                                389.2                                             2.3318255797705006E7
18                                                1.4455545735459376-9.357066414219866E-14i         1.4455545735459376                                389.2                                             2.33368120689365E7
18                                                1.4549501330217227                                1.4549501330217227                                389.2                                             2.3488492544915393E7
18                                                1.456268514354357                                 1.456268514354357                                 389.2                                             2.3509776291622657E7
19                                                1.430424967837127-5.872098413414567E-8i           1.430424967837127                                 393.59999999999997                                2.2834413467827916E7
19                                                1.4433077659837628-1.1653474821612008E-15i        1.4433077659837628                                393.59999999999997                                2.304006643538458E7
19                                                1.444495735173224-1.089459961003118E-13i          1.444495735173224                                 393.59999999999997                                2.3059030435782455E7
19                                                1.4540797764933417                                1.4540797764933417                                393.59999999999997                                2.321202410348054E7
19                                                1.4554401003541655                                1.4554401003541655                                393.59999999999997                                2.323373946652763E7
20                                                1.4291419364208922-6.821776239034615E-8i          1.4291419364208922                                398                                               2.2561717630135503E7
20                                                1.4422227049176366-1.2940961092928495E-15i        1.4422227049176366                                398                                               2.2768222384973098E7
20                                                1.4434500340458023-1.2667957978838292E-13i        1.4434500340458023                                398                                               2.278759810443331E7
20                                                1.4532237796741776                                1.4532237796741776                                398                                               2.2941895227368783E7
20                                                1.4546268386142385                                1.4546268386142385                                398                                               2.2964045175402194E7
21                                                1.4278721708967685-7.904814628965669E-8i          1.4278721708967685                                402.4                                             2.2295192457030803E7
21                                                1.4411493147778125-1.4235650660525928E-15i        1.4411493147778125                                402.4                                             2.2502505467355568E7
21                                                1.442416835746801-1.471685869517463E-13i          1.442416835746801                                 402.4                                             2.2522296891632132E7
21                                                1.4523814902194416                                1.4523814902194416                                402.4                                             2.2677887772779293E7
21                                                1.4538280809672937                                1.4538280809672937                                402.4                                             2.2700475242293224E7
22                                                1.4266153264538761-9.136216739139289E-8i          1.4266153264538761                                406.79999999999995                                2.203463239472026E7
22                                                1.4400871495087408-1.6712917080326774E-15i        1.4400871495087408                                406.79999999999995                                2.224270997751094E7
22                                                1.4413957022249546-1.7077622298494597E-13i        1.4413957022249546                                406.79999999999995                                2.2262921086655937E7
22                                                1.4515524514751326                                1.4515524514751326                                406.79999999999995                                2.241979605631529E7
22                                                1.4530433747831655                                1.4530433747831655                                406.79999999999995                                2.2442823950669184E7
23                                                1.4253702619595816-1.0532152539802374E-7i         1.4253702619595816                                411.19999999999993                                2.1779828519540757E7
23                                                1.4390349674351404-1.8208766132955835E-15i        1.4390349674351404                                411.19999999999993                                2.1988626857748363E7
23                                                1.4403854003823242-1.9794601874680874E-13i        1.4403854003823242                                411.19999999999993                                2.2009261635112364E7
23                                                1.4507354154458143                                1.4507354154458143                                411.19999999999993                                2.216741110635752E7
23                                                1.452271476408533                                 1.452271476408533                                 411.19999999999993                                2.219088230205763E7
24                                                1.4241364869171897-1.21098018929997E-7i           1.4241364869171897                                415.59999999999997                                2.1530590591954857E7
24                                                1.4379921791383286-2.0017234426988133E-15i        1.4379921791383286                                415.59999999999997                                2.174006576468022E7
24                                                1.4393853489749742-2.2923751638910947E-13i        1.4393853489749742                                415.59999999999997                                2.176112819068604E7
24                                                1.4499297833590614                                1.4499297833590614                                415.59999999999997                                2.192054261608213E7
24                                                1.451511791048799                                 1.451511791048799                                 415.59999999999997                                2.1944459958411302E7
25                                                1.4229138255318707-1.3887329717265924E-7i         1.4229138255318707                                419.99999999999994                                2.128674105229654E7
25                                                1.436958512031873-2.2995955494512776E-15i         1.436958512031873                                 419.99999999999994                                2.149684907101263E7
25                                                1.4383952833811524-2.6526294494286286E-13i        1.4383952833811524                                419.99999999999994                                2.1518343120135415E7
25                                                1.4491352717876433                                1.4491352717876433                                419.99999999999994                                2.1679012970980518E7
25                                                1.450764039038721                                 1.450764039038721                                 419.99999999999994                                2.1703379272077627E7
26                                                1.4217014099049832-1.5883999943693118E-7i         1.4217014099049832                                424.3999999999999                                 2.1048099457849886E7
26                                                1.4359330024099741-2.6638031753662636E-15i        1.4359330024099741                                424.3999999999999                                 2.125879628378091E7
26                                                1.4374142483905967-3.0665104403269953E-13i        1.4374142483905967                                424.3999999999999                                 2.1280725932654064E7
26                                                1.4483509100221503                                1.4483509100221503                                424.3999999999999                                 2.1442641747152112E7
26                                                1.450027253705948-1.7888490799438402E-16i         1.450027253705948                                 424.3999999999999                                 2.146745979145895E7
27                                                1.4204985750186605-1.812000765144077E-7i          1.4204985750186605                                428.79999999999995                                2.081449574493187E7
27                                                1.4349148914734753-2.956728560219953E-15i         1.4349148914734753                                428.79999999999995                                2.1025737320800673E7
27                                                1.436441493597134-3.541635460857369E-13i          1.436441493597134                                 428.79999999999995                                2.1048106546624556E7
27                                                1.4475759314463417                                1.4475759314463417                                428.79999999999995                                2.121125891672215E7