% Model:              HY_Ge-backup.mph
% Version:            COMSOL 6.2.0.415
% Date:               Jul 29 2024, 15:11
% Table:              Table 1 - Eval_German
% daddy                                           Effective mode index                              real(ewfd.neff) (1)                               Wavelength in free space (nm)                     Propagation constant (rad/m)
1                                                 1.4545277293914751-2.684317934790687E-9i          1.4545277293914751                                314.4                                             2.906828008332634E7
1                                                 1.4636972391515684                                1.4636972391515684                                314.4                                             2.92515298574951E7
1                                                 1.4643104834618077-6.046055852680652E-15i         1.4643104834618077                                314.4                                             2.9263785352532655E7
1                                                 1.4707130650835876                                1.4707130650835876                                314.4                                             2.9391738936419375E7
1                                                 1.4714359344202927                                1.4714359344202927                                314.4                                             2.9406185253198627E7
2                                                 1.4513732228859186-3.3155222609069364E-9i         1.4513732228859186                                318.8                                             2.8604915022806417E7
2                                                 1.4607548579806406                                1.4607548579806406                                318.8                                             2.8789816377211932E7
2                                                 1.4613944688991845-7.319764935150642E-15i         1.4613944688991845                                318.8                                             2.8802422380743004E7
2                                                 1.4679668660026606                                1.4679668660026606                                318.8                                             2.8931956850358784E7
2                                                 1.4687194332182585                                1.4687194332182585                                318.8                                             2.8946789093996517E7
3                                                 1.448722450108407-4.062644494190393E-9i           1.448722450108407                                 323.19999999999993                                2.816395919771768E7
3                                                 1.4583152421532999                                1.4583152421532999                                323.19999999999993                                2.835044833766601E7
3                                                 1.458981758752951-8.800122123132263E-15i          1.458981758752951                                 323.19999999999993                                2.8363405786013532E7
3                                                 1.4657241596985446                                1.4657241596985446                                323.19999999999993                                2.8494481759269927E7
3                                                 1.466506994947476                                 1.466506994947476                                 323.19999999999993                                2.850970050597175E7
4                                                 1.4464741869169708-4.944157626644335E-9i          1.4464741869169708                                327.6                                             2.774256824924068E7
4                                                 1.4562773509403626                                1.4562773509403626                                327.6                                             2.7930587468275014E7
4                                                 1.456971343902647-1.0506295393626107E-14i         1.456971343902647                                 327.6                                             2.79438978662723E7
4                                                 1.4638841554894002                                1.4638841554894002                                327.6                                             2.807648173743588E7
4                                                 1.4646978593247957                                1.4646978593247957                                327.6                                             2.8092088123220228E7
5                                                 1.444546615786637-5.9813861641298915E-9i          1.444546615786637                                 331.99999999999994                                2.7338415879056E7
5                                                 1.4545594957423778-2.602038177030566E-16i         1.4545594957423778                                331.99999999999994                                2.7527912205021255E7
5                                                 1.4552815635588765-1.2548938906991096E-14i        1.4552815635588765                                331.99999999999994                                2.7541577523983337E7
5                                                 1.46236537278671                                  1.46236537278671                                  331.99999999999994                                2.767564043380017E7
5                                                 1.4632105716886266                                1.4632105716886266                                331.99999999999994                                2.7691636040192235E7
6                                                 1.4428735885458492-7.198945810275694E-9i          1.4428735885458492                                336.4                                             2.694959016548384E7
6                                                 1.4530956129506387-2.881004329101083E-16i         1.4530956129506387                                336.4                                             2.714051428424069E7
6                                                 1.453846378796857-1.4819406473501916E-14i         1.453846378796857                                 336.4                                             2.7154536879169617E7
6                                                 1.4611019206697644                                1.4611019206697644                                336.4                                             2.7290053865172822E7
6                                                 1.4619792634250408                                1.4619792634250408                                336.4                                             2.7306440628280174E7
7                                                 1.441401626965497-8.625075984638735E-9i           1.441401626965497                                 340.8                                             2.6574511514948238E7
7                                                 1.451832272735191-2.823165927450679E-16i          1.451832272735191                                 340.8                                             2.676681691472681E7
7                                                 1.4526123818873837-1.750396937427559E-14i         1.4526123818873837                                340.8                                             2.678119945687192E7
7                                                 1.460040512351579                                 1.460040512351579                                 340.8                                             2.6918148753211252E7
7                                                 1.46095066710528                                  1.46095066710528                                  340.8                                             2.693492889105079E7
8                                                 1.4400875107204223-1.0292072954708485E-8i         1.4400875107204223                                345.19999999999993                                2.6211867579407252E7
8                                                 1.4507262736426014-3.463138763655718E-16i         1.4507262736426014                                345.19999999999993                                2.640550987048258E7
8                                                 1.4515363913340211-2.0624375880613E-14i           1.4515363913340211                                345.19999999999993                                2.642025529219699E7
8                                                 1.459138064557943                                 1.459138064557943                                 345.19999999999993                                2.655861775311972E7
8                                                 1.4600817163960065                                1.4600817163960065                                345.19999999999993                                2.6575793707244903E7
9                                                 1.4388963340155108-1.2236836863379689E-8i         1.4388963340155108                                349.6                                             2.586056151155843E7
9                                                 1.4497427046006648-2.8434149023678595E-16i        1.4497427046006648                                349.6                                             2.6055497885405295E7
9                                                 1.4505835142352475-2.4190288113450518E-14i        1.4505835142352475                                349.6                                             2.6070609334896553E7
9                                                 1.458359763547894                                 1.458359763547894                                 349.6                                             2.6210367960257497E7
9                                                 1.4593376125024604                                1.4593376125024604                                349.6                                             2.622794234865559E7
10                                                1.4377999370103438-1.4501070846499521E-8i         1.4377999370103438                                354                                               2.5519670731319565E7
10                                                1.4488533807094686-3.8500502129682597E-16i        1.4488533807094686                                354                                               2.5715859530879106E7
10                                                1.4497255823667752-2.83320239023889E-14i          1.4497255823667752                                354                                               2.57313403349415E7
10                                                1.4576775042704933                                1.4576775042704933                                354                                               2.5872479879769977E7
10                                                1.4586902636623382                                1.4586902636623382                                354                                               2.589045545866983E7
11                                                1.4367756376227157-1.7132265686305874E-8i         1.4367756376227157                                358.3999999999999                                 2.5188413995604433E7
11                                                1.448035578599149-5.169093904787066E-16i          1.448035578599149                                 358.3999999999999                                 2.5385814374239575E7
11                                                1.4489398877773298-3.3153438698189456E-14i        1.4489398877773298                                358.3999999999999                                 2.5401668007446866E7
11                                                1.4570686285401564                                1.4570686285401564                                358.3999999999999                                 2.5544174660702627E7
11                                                1.4581170235909748                                1.4581170235909748                                358.3999999999999                                 2.556255429345771E7
12                                                1.4358052045516947-2.0183850634365195E-8i         1.4358052045516947                                362.8                                             2.4866125041927196E7
12                                                1.44727101236381-4.975560726031012E-16i           1.44727101236381                                  362.8                                             2.5064696693470825E7
12                                                1.448208158919488-3.870663104389636E-14i          1.448208158919488                                 362.8                                             2.5080926752647534E7
12                                                1.4565149033308489                                1.4565149033308489                                362.8                                             2.5224787872923054E7
12                                                1.457599669994725                                 1.457599669994725                                 362.8                                             2.5243574504577365E7
13                                                1.4348740244180094-2.3715759334146442E-8i         1.4348740244180094                                367.2                                             2.4552231448466446E7
13                                                1.4465450030952718-5.654089620169445E-16i         1.4465450030952718                                367.2                                             2.4751934394396134E7
13                                                1.4475157303464699-4.5086158788580416E-14i        1.4475157303464699                                367.2                                             2.476854457740813E7
13                                                1.4560016922859904                                1.4560016922859904                                367.2                                             2.4913748475490052E7
13                                                1.4571235762591623                                1.4571235762591623                                367.2                                             2.4932945111918684E7
14                                                1.4339704254162158-2.7795101710909426E-8i         1.4339704254162158                                371.6                                             2.4246237642371435E7
14                                                1.445845804512115-5.877589965933734E-16i          1.445845804512115                                 371.6                                             2.4447032065010134E7
14                                                1.446850868476088-5.24790276401173E-14i           1.446850868476088                                 371.6                                             2.446402615309197E7
14                                                1.455517283001431                                 1.455517283001431                                 371.6                                             2.4610561913080033E7
14                                                1.4566770388770207                                1.4566770388770207                                371.6                                             2.4630171603815828E7
15                                                1.433085127370146-3.249696608415911E-8i           1.433085127370146                                 376                                               2.3947711213376824E7
15                                                1.4451640546642497-7.341555776605879E-16i         1.4451640546642497                                376                                               2.4149557326410875E7
15                                                1.4462042234087655-6.098413619582885E-14i         1.4462042234087655                                376                                               2.416693916942292E7
15                                                1.4550523401172015                                1.4550523401172015                                376                                               2.4314796501600195E7
15                                                1.4562507306601924                                1.4562507306601924                                376                                               2.433482232567462E7
16                                                1.4322107940665427-3.7904410025620707E-8i         1.4322107940665427                                380.3999999999999                                 2.365627186662174E7
16                                                1.4444923296519856-8.624532096091495E-16i         1.4444923296519856                                380.3999999999999                                 2.3859129815990977E7
16                                                1.4455683827420776-7.082178190575076E-14i         1.4455683827420776                                380.3999999999999                                 2.387690332010615E7
16                                                1.4545994602002794                                1.4545994602002794                                380.3999999999999                                 2.4026072439962547E7
16                                                1.455837255722401                                 1.455837255722401                                 380.3999999999999                                 2.404651749421567E7
17                                                1.4313416684860538-4.410938182402213E-8i          1.4313416684860538                                384.8                                             2.3371582486968517E7
17                                                1.4438247800284412-8.878538825752781E-16i         1.4438247800284412                                384.8                                             2.357541227655015E7
17                                                1.4449375080531746-8.2064476780798E-14i           1.4449375080531746                                384.8                                             2.3593581393951118E7
17                                                1.4541528091229248                                1.4541528091229248                                384.8                                             2.3744052922752287E7
17                                                1.4554307869400978                                1.4554307869400978                                384.8                                             2.3764920312159155E7
18                                                1.4304732753174079-5.121313106444969E-8i          1.4304732753174079                                389.2                                             2.3093341895651065E7
18                                                1.4431568343159136-9.92729776095693E-16i          1.4431568343159136                                389.2                                             2.3298103333323613E7
18                                                1.444307038482936-9.508557947817073E-14i          1.444307038482936                                 389.2                                             2.3316672053576674E7
18                                                1.4537078263989462                                1.4537078263989462                                389.2                                             2.346843693669535E7
18                                                1.4550267703579387                                1.4550267703579387                                389.2                                             2.3489729766356535E7
19                                                1.4296021781622954-5.932661455658604E-8i          1.4296021781622954                                393.59999999999997                                2.2821278965806063E7
19                                                1.4424849570785538-1.175265997947524E-15i         1.4424849570785538                                393.59999999999997                                2.3026931626380958E7
19                                                1.4436734488667036-1.1013883875996905E-13i        1.4436734488667036                                393.59999999999997                                2.304590396921888E7
19                                                1.4532609839465027                                1.4532609839465027                                393.59999999999997                                2.319895340912097E7
19                                                1.4546216840104154                                1.4546216840104154                                393.59999999999997                                2.3220674777639907E7
20                                                1.4287257812651393-6.85708860888903E-8i           1.4287257812651393                                398                                               2.2555147831240695E7
20                                                1.4418064514094366-1.3000157146250469E-15i        1.4418064514094366                                398                                               2.2761651033398263E7
20                                                1.4430340522706275-1.2742584906290602E-13i        1.4430340522706275                                398                                               2.278103104267996E7
20                                                1.45280958915557                                  1.45280958915557                                  398                                               2.2935356443999715E7
20                                                1.4542128410387585                                1.4542128410387585                                398                                               2.2957509438006554E7
21                                                1.4278421675360409-7.90774060901312E-8i           1.4278421675360409                                402.4                                             2.22947239762274E7
21                                                1.4411192976203582-1.475066861979148E-15i         1.4411192976203582                                402.4                                             2.250203677112624E7
21                                                1.4423868387230758-1.471863236087025E-13i         1.4423868387230758                                402.4                                             2.2521828509776443E7
21                                                1.452351624065725                                 1.452351624065725                                 402.4                                             2.2677421434364248E7
21                                                1.4537982289099864                                1.4537982289099864                                402.4                                             2.2700009123983428E7
22                                                1.4269499661796474-9.098824760464195E-8i          1.4269499661796474                                406.79999999999995                                2.203980103633325E7
22                                                1.4404220214683108-1.608773814234848E-15i         1.4404220214683108                                406.79999999999995                                2.2247882206065897E7
22                                                1.4417303434774407-1.6999418066395438E-13i        1.4417303434774407                                406.79999999999995                                2.2268089751849636E7
22                                                1.4518856140049812                                1.4518856140049812                                406.79999999999995                                2.2424941882058773E7
22                                                1.4533763780917244                                1.4533763780917244                                406.79999999999995                                2.2447967317177493E7
23                                                1.426048244515802-1.0445619543101523E-7i          1.426048244515802                                 411.19999999999993                                2.1790188174297005E7
23                                                1.4397135865142965-1.8140781981213246E-15i        1.4397135865142965                                411.19999999999993                                2.199899623865139E7
23                                                1.4410635394021247-1.9609559992016513E-13i        1.4410635394021247                                411.19999999999993                                2.2019623680650875E7
23                                                1.4514105202963414                                1.4514105202963414                                411.19999999999993                                2.2177726789425705E7
23                                                1.452946254789423                                 1.452946254789423                                 411.19999999999993                                2.2201192996630613E7
24                                                1.4251364195882459-1.1964472762610142E-7i         1.4251364195882459                                415.59999999999997                                2.1545707921759833E7
24                                                1.4389933062182807-2.1190321260211024E-15i        1.4389933062182807                                415.59999999999997                                2.1755201151974194E7
24                                                1.4403857491016818-2.261851541163691E-13i         1.4403857491016818                                415.59999999999997                                2.1776252587648094E7
24                                                1.4509256526451697                                1.4509256526451697                                415.59999999999997                                2.19355985142206E7
24                                                1.4525071733591306                                1.4525071733591306                                415.59999999999997                                2.1959508494280655E7
25                                                1.4242141859590765-1.3672786997474284E-7i         1.4242141859590765                                419.99999999999994                                2.130619439879715E7
25                                                1.4382607721801053-2.2850131529994774E-15i        1.4382607721801053                                419.99999999999994                                2.151633083727334E7
25                                                1.4396965731808515-2.6063099015278204E-13i        1.4396965731808515                                419.99999999999994                                2.1537810370016016E7
25                                                1.4504305976278764                                1.4504305976278764                                419.99999999999994                                2.1698391000236142E7
25                                                1.4520587248186596                                1.4520587248186596                                419.99999999999994                                2.1722747726053637E7
26                                                1.4232814567649892-1.5588991480213513E-7i         1.4232814567649892                                424.3999999999999                                 2.107149184054415E7
26                                                1.4375157956058624-2.597994687447269E-15i         1.4375157956058624                                424.3999999999999                                 2.1282229325611044E7
26                                                1.4389958317310367-3.0008246216267533E-13i        1.4389958317310367                                424.3999999999999                                 2.1304141062735904E7
26                                                1.4499251603677867                                1.4499251603677867                                424.3999999999999                                 2.146594831322545E7
26                                                1.4516007185429476-1.6158291312936772E-16i        1.4516007185429476                                424.3999999999999                                 2.149075472818185E7
27                                                1.4223383156496663-1.7732500630207588E-7i         1.4223383156496663                                428.79999999999995                                2.0841453373900518E7
27                                                1.4367583596154418-2.8741126599424553E-15i        1.4367583596154418                                428.79999999999995                                2.1052749568804074E7
27                                                1.438283516654784-3.453387797798367E-13i          1.438283516654784                                 428.79999999999995                                2.1075097619878553E7
27                                                1.449409317018967                                 1.449409317018967                                 428.79999999999995                                2.1238123425332956E7